LAMMPS (27 May 2021)
OMP_NUM_THREADS environment is not set. Defaulting to 1 thread. (src/comm.cpp:98)
  using 1 OpenMP thread(s) per MPI task
# only protein 1hrc

units		real
boundary	p p p
atom_style	full

pair_style	lj/gromacs/coul/gromacs 9 12 0 12
bond_style      harmonic
special_bonds lj/coul 0.0 1.0 0.0
angle_style     cosine/squared
dihedral_style  charmm
improper_style  harmonic

read_data	protein_lam_data.txt
Reading data file ...
  orthogonal box = (-60.000000 -60.000000 -190.00000) to (60.000000 60.000000 190.00000)
  1 by 1 by 1 MPI processor grid
  reading atoms ...
  360 atoms
  scanning bonds ...
  2 = max bonds/atom
  scanning angles ...
  2 = max angles/atom
  scanning dihedrals ...
  1 = max dihedrals/atom
  scanning impropers ...
  2 = max impropers/atom
  reading bonds ...
  248 bonds
  reading angles ...
  233 angles
  reading dihedrals ...
  28 dihedrals
  reading impropers ...
  13 impropers
Finding 1-2 1-3 1-4 neighbors ...
  special bond factors lj:    0        1        0       
  special bond factors coul:  0        1        0       
     3 = max # of 1-2 neighbors
     6 = max # of 1-3 neighbors
    16 = max # of 1-4 neighbors
    15 = max # of special neighbors
  special bonds CPU = 0.000 seconds
  read_data CPU = 0.005 seconds
region		tot block INF INF INF INF -30 30
region		porecyl cylinder z 0 0 20 -30 30 side in
region		left block INF INF INF INF INF -30
region		right block INF INF INF INF 30 INF
region		outpore cylinder z 0 0 20 -30 30 side out
region		walls intersect 2 tot outpore
region		pore union 3 porecyl left right

group 		protein molecule 1
236 atoms in group protein

neighbor	1.1 bin
neigh_modify	delay 5

timestep	3

thermo_style	multi
thermo		50

minimize 	1.0e-4 1.0e-6 100 1000
WARNING: Using 'neigh_modify every 1 delay 0 check yes' setting during minimization (src/min.cpp:189)
Neighbor list info ...
  update every 1 steps, delay 0 steps, check yes
  max neighbors/atom: 2000, page size: 100000
  master list distance cutoff = 13.1
  ghost atom cutoff = 13.1
  binsize = 6.55, bins = 19 19 59
  1 neighbor lists, perpetual/occasional/extra = 1 0 0
  (1) pair lj/gromacs/coul/gromacs, perpetual
      attributes: half, newton on
      pair build: half/bin/newton
      stencil: half/bin/3d
      bin: standard
Per MPI rank memory allocation (min/avg/max) = 9.838 | 9.838 | 9.838 Mbytes
---------------- Step        0 ----- CPU =      0.0000 (sec) ----------------
TotEng   =     -1370.3158 KinEng   =         0.0000 Temp     =         0.0000 
PotEng   =     -1370.3158 E_bond   =       263.7333 E_angle  =        82.2027 
E_dihed  =        38.6553 E_impro  =         3.3400 E_vdwl   =      -939.9356 
E_coul   =      -818.3115 E_long   =         0.0000 Press    =        -0.6966 
---------------- Step       50 ----- CPU =      0.0180 (sec) ----------------
TotEng   =     -1722.2524 KinEng   =         0.0000 Temp     =         0.0000 
PotEng   =     -1722.2524 E_bond   =        78.4472 E_angle  =        63.6164 
E_dihed  =        29.9605 E_impro  =         2.0054 E_vdwl   =     -1053.4987 
E_coul   =      -842.7833 E_long   =         0.0000 Press    =        -3.7178 
---------------- Step       73 ----- CPU =      0.0310 (sec) ----------------
TotEng   =     -1771.5031 KinEng   =         0.0000 Temp     =         0.0000 
PotEng   =     -1771.5031 E_bond   =        70.1864 E_angle  =        61.7683 
E_dihed  =        28.2777 E_impro  =         1.9964 E_vdwl   =     -1075.9862 
E_coul   =      -857.7457 E_long   =         0.0000 Press    =        -3.2906 
Loop time of 0.0311491 on 1 procs for 73 steps with 360 atoms

100.3% CPU use with 1 MPI tasks x 1 OpenMP threads

Minimization stats:
  Stopping criterion = energy tolerance
  Energy initial, next-to-last, final = 
     -1370.31579922263  -1771.35148536319  -1771.50306594582
  Force two-norm initial, final = 130.14754 16.709306
  Force max component initial, final = 27.151880 4.4942081
  Final line search alpha, max atom move = 0.019161931 0.086117705
  Iterations, force evaluations = 73 96

MPI task timing breakdown:
Section |  min time  |  avg time  |  max time  |%varavg| %total
---------------------------------------------------------------
Pair    | 0.024002   | 0.024002   | 0.024002   |   0.0 | 77.06
Bond    | 0.00099993 | 0.00099993 | 0.00099993 |   0.0 |  3.21
Neigh   | 0.003032   | 0.003032   | 0.003032   |   0.0 |  9.73
Comm    | 0          | 0          | 0          |   0.0 |  0.00
Output  | 0.00093293 | 0.00093293 | 0.00093293 |   0.0 |  3.00
Modify  | 0          | 0          | 0          |   0.0 |  0.00
Other   |            | 0.002182   |            |       |  7.01

Nlocal:        360.000 ave         360 max         360 min
Histogram: 1 0 0 0 0 0 0 0 0 0
Nghost:         0.00000 ave           0 max           0 min
Histogram: 1 0 0 0 0 0 0 0 0 0
Neighs:        8734.00 ave        8734 max        8734 min
Histogram: 1 0 0 0 0 0 0 0 0 0

Total # of neighbors = 8734
Ave neighs/atom = 24.261111
Ave special neighs/atom = 5.5444444
Neighbor list builds = 10
Dangerous builds = 0
fix		1 protein nve temp 298.15 298.15 $(100.0*dt)
fix		1 protein nve temp 298.15 298.15 300
#fix		6 protein addforce 0 0 -100 region walls
fix		7 protein wall/region pore lj126 50 1 1.12
fix		2 protein langevin 298.15 298.15 14 12345

dump id all custom 500 output.lammpstrj id type xu yu zu		#vmd/pymol
run 80000
Per MPI rank memory allocation (min/avg/max) = 8.713 | 8.713 | 8.713 Mbytes
---------------- Step       73 ----- CPU =      0.0000 (sec) ----------------
TotEng   =     -1771.5031 KinEng   =         0.0000 Temp     =         0.0000 
PotEng   =     -1771.5031 E_bond   =        70.1864 E_angle  =        61.7683 
E_dihed  =        28.2777 E_impro  =         1.9964 E_vdwl   =     -1075.9862 
E_coul   =      -857.7457 E_long   =         0.0000 Press    =        -3.2906 
---------------- Step      100 ----- CPU =      0.0050 (sec) ----------------
TotEng   =     -1517.9324 KinEng   =       198.2154 Temp     =       185.2288 
PotEng   =     -1716.1478 E_bond   =        88.9328 E_angle  =        65.7544 
E_dihed  =        32.9118 E_impro  =         2.7077 E_vdwl   =     -1045.8109 
E_coul   =      -860.6435 E_long   =         0.0000 Press    =        -0.2959 
---------------- Step      150 ----- CPU =      0.0140 (sec) ----------------
TotEng   =     -1476.9714 KinEng   =       194.7957 Temp     =       182.0332 
PotEng   =     -1671.7671 E_bond   =       110.6520 E_angle  =        70.1770 
E_dihed  =        35.1206 E_impro  =         3.1827 E_vdwl   =     -1037.0725 
E_coul   =      -853.8268 E_long   =         0.0000 Press    =         0.3019 
---------------- Step      200 ----- CPU =      0.0241 (sec) ----------------
TotEng   =     -1450.9500 KinEng   =       204.0779 Temp     =       190.7072 
PotEng   =     -1655.0279 E_bond   =       124.2160 E_angle  =        70.0032 
E_dihed  =        31.6384 E_impro  =         3.2177 E_vdwl   =     -1024.1930 
E_coul   =      -859.9101 E_long   =         0.0000 Press    =         0.1556 
---------------- Step      250 ----- CPU =      0.0332 (sec) ----------------
TotEng   =     -1430.4227 KinEng   =       216.3720 Temp     =       202.1959 
PotEng   =     -1646.7947 E_bond   =       128.3168 E_angle  =        67.1607 
E_dihed  =        27.2918 E_impro  =         2.0882 E_vdwl   =     -1008.2125 
E_coul   =      -863.4398 E_long   =         0.0000 Press    =         1.0164 
---------------- Step      300 ----- CPU =      0.0412 (sec) ----------------
TotEng   =     -1425.6092 KinEng   =       209.8998 Temp     =       196.1478 
PotEng   =     -1635.5091 E_bond   =       131.0595 E_angle  =        68.2558 
E_dihed  =        27.2665 E_impro  =         2.5720 E_vdwl   =     -1003.8459 
E_coul   =      -860.8169 E_long   =         0.0000 Press    =         0.5424 
---------------- Step      350 ----- CPU =      0.0511 (sec) ----------------
TotEng   =     -1429.8796 KinEng   =       200.5088 Temp     =       187.3720 
PotEng   =     -1630.3883 E_bond   =       133.4281 E_angle  =        68.3564 
E_dihed  =        28.0671 E_impro  =         2.6148 E_vdwl   =     -1002.3707 
E_coul   =      -860.4840 E_long   =         0.0000 Press    =         0.6794 
---------------- Step      400 ----- CPU =      0.0597 (sec) ----------------
TotEng   =     -1426.3475 KinEng   =       198.7384 Temp     =       185.7176 
PotEng   =     -1625.0859 E_bond   =       130.5777 E_angle  =        70.0039 
E_dihed  =        32.1484 E_impro  =         2.6914 E_vdwl   =     -1004.0257 
E_coul   =      -856.4817 E_long   =         0.0000 Press    =         0.8810 
---------------- Step      450 ----- CPU =      0.0687 (sec) ----------------
TotEng   =     -1411.3146 KinEng   =       228.4144 Temp     =       213.4493 
PotEng   =     -1639.7290 E_bond   =       125.3312 E_angle  =        70.8712 
E_dihed  =        33.7329 E_impro  =         1.6094 E_vdwl   =     -1014.9555 
E_coul   =      -856.3183 E_long   =         0.0000 Press    =         1.2535 
---------------- Step      500 ----- CPU =      0.0787 (sec) ----------------
TotEng   =     -1418.9002 KinEng   =       211.6558 Temp     =       197.7887 
PotEng   =     -1630.5560 E_bond   =       133.5805 E_angle  =        71.7168 
E_dihed  =        29.6534 E_impro  =         2.4992 E_vdwl   =     -1013.1034 
E_coul   =      -854.9026 E_long   =         0.0000 Press    =         1.2898 
---------------- Step      550 ----- CPU =      0.0877 (sec) ----------------
TotEng   =     -1412.2396 KinEng   =       209.8005 Temp     =       196.0549 
PotEng   =     -1622.0401 E_bond   =       139.7732 E_angle  =        68.2292 
E_dihed  =        28.3971 E_impro  =         2.4098 E_vdwl   =     -1004.8569 
E_coul   =      -855.9925 E_long   =         0.0000 Press    =         1.6662 
---------------- Step      600 ----- CPU =      0.0967 (sec) ----------------
TotEng   =     -1423.1027 KinEng   =       185.2580 Temp     =       173.1204 
PotEng   =     -1608.3607 E_bond   =       146.4741 E_angle  =        67.8828 
E_dihed  =        34.2968 E_impro  =         2.9391 E_vdwl   =      -999.0980 
E_coul   =      -860.8555 E_long   =         0.0000 Press    =         1.9154 
---------------- Step      650 ----- CPU =      0.1057 (sec) ----------------
TotEng   =     -1411.6577 KinEng   =       199.0285 Temp     =       185.9886 
PotEng   =     -1610.6862 E_bond   =       135.5407 E_angle  =        71.0534 
E_dihed  =        30.7389 E_impro  =         3.0353 E_vdwl   =      -988.6942 
E_coul   =      -862.3602 E_long   =         0.0000 Press    =         2.6486 
---------------- Step      700 ----- CPU =      0.1147 (sec) ----------------
TotEng   =     -1393.0631 KinEng   =       228.4056 Temp     =       213.4411 
PotEng   =     -1621.4687 E_bond   =       131.2194 E_angle  =        67.5689 
E_dihed  =        35.6449 E_impro  =         2.4373 E_vdwl   =     -1005.3878 
E_coul   =      -852.9514 E_long   =         0.0000 Press    =         1.6579 
---------------- Step      750 ----- CPU =      0.1237 (sec) ----------------
TotEng   =     -1424.5877 KinEng   =       192.1342 Temp     =       179.5461 
PotEng   =     -1616.7220 E_bond   =       135.5100 E_angle  =        69.2257 
E_dihed  =        28.0547 E_impro  =         3.3046 E_vdwl   =      -982.9999 
E_coul   =      -869.8170 E_long   =         0.0000 Press    =         2.8277 
---------------- Step      800 ----- CPU =      0.1327 (sec) ----------------
TotEng   =     -1422.2790 KinEng   =       201.6537 Temp     =       188.4419 
PotEng   =     -1623.9327 E_bond   =       127.7988 E_angle  =        72.6496 
E_dihed  =        34.1208 E_impro  =         2.4136 E_vdwl   =     -1000.5696 
E_coul   =      -860.3457 E_long   =         0.0000 Press    =         1.9541 
---------------- Step      850 ----- CPU =      0.1417 (sec) ----------------
TotEng   =     -1405.7634 KinEng   =       222.3206 Temp     =       207.7547 
PotEng   =     -1628.0840 E_bond   =       123.3586 E_angle  =        69.2548 
E_dihed  =        31.2053 E_impro  =         1.9637 E_vdwl   =     -1011.4172 
E_coul   =      -842.4492 E_long   =         0.0000 Press    =         0.7527 
---------------- Step      900 ----- CPU =      0.1507 (sec) ----------------
TotEng   =     -1415.7322 KinEng   =       212.2051 Temp     =       198.3019 
PotEng   =     -1627.9373 E_bond   =       133.3611 E_angle  =        70.5118 
E_dihed  =        30.0542 E_impro  =         2.1978 E_vdwl   =     -1019.9639 
E_coul   =      -844.0984 E_long   =         0.0000 Press    =         0.6339 
---------------- Step      950 ----- CPU =      0.1597 (sec) ----------------
TotEng   =     -1410.9620 KinEng   =       213.6221 Temp     =       199.6261 
PotEng   =     -1624.5841 E_bond   =       138.1197 E_angle  =        66.3701 
E_dihed  =        32.0007 E_impro  =         1.9680 E_vdwl   =     -1017.3811 
E_coul   =      -845.6614 E_long   =         0.0000 Press    =         1.0293 
---------------- Step     1000 ----- CPU =      0.1707 (sec) ----------------
TotEng   =     -1424.5674 KinEng   =       203.4278 Temp     =       190.0998 
PotEng   =     -1627.9952 E_bond   =       133.6618 E_angle  =        73.8138 
E_dihed  =        24.1788 E_impro  =         2.1573 E_vdwl   =     -1010.8744 
E_coul   =      -850.9325 E_long   =         0.0000 Press    =         0.9763 
---------------- Step     1050 ----- CPU =      0.1807 (sec) ----------------
TotEng   =     -1423.9244 KinEng   =       202.4084 Temp     =       189.1471 
PotEng   =     -1626.3328 E_bond   =       137.2351 E_angle  =        69.8742 
E_dihed  =        29.8070 E_impro  =         1.5148 E_vdwl   =     -1006.3236 
E_coul   =      -858.4404 E_long   =         0.0000 Press    =         0.6874 
---------------- Step     1100 ----- CPU =      0.1897 (sec) ----------------
TotEng   =     -1445.8720 KinEng   =       187.2933 Temp     =       175.0223 
PotEng   =     -1633.1653 E_bond   =       124.0553 E_angle  =        69.0796 
E_dihed  =        32.2096 E_impro  =         1.8695 E_vdwl   =     -1004.8193 
E_coul   =      -855.5600 E_long   =         0.0000 Press    =         1.3522 
---------------- Step     1150 ----- CPU =      0.1998 (sec) ----------------
TotEng   =     -1426.5254 KinEng   =       210.6562 Temp     =       196.8545 
PotEng   =     -1637.1816 E_bond   =       128.2278 E_angle  =        69.4558 
E_dihed  =        33.3602 E_impro  =         2.2827 E_vdwl   =     -1012.0779 
E_coul   =      -858.4302 E_long   =         0.0000 Press    =         1.0892 
---------------- Step     1200 ----- CPU =      0.2087 (sec) ----------------
TotEng   =     -1394.8291 KinEng   =       219.6867 Temp     =       205.2934 
PotEng   =     -1614.5157 E_bond   =       129.8531 E_angle  =        69.0540 
E_dihed  =        35.7412 E_impro  =         1.7779 E_vdwl   =      -994.0063 
E_coul   =      -856.9356 E_long   =         0.0000 Press    =         2.1153 
---------------- Step     1250 ----- CPU =      0.2182 (sec) ----------------
TotEng   =     -1403.4701 KinEng   =       227.2406 Temp     =       212.3524 
PotEng   =     -1630.7107 E_bond   =       128.1839 E_angle  =        69.2298 
E_dihed  =        34.3230 E_impro  =         1.0226 E_vdwl   =     -1006.9438 
E_coul   =      -856.5263 E_long   =         0.0000 Press    =         1.4514 
---------------- Step     1300 ----- CPU =      0.2272 (sec) ----------------
TotEng   =     -1406.9863 KinEng   =       210.2515 Temp     =       196.4763 
PotEng   =     -1617.2378 E_bond   =       138.6198 E_angle  =        70.0067 
E_dihed  =        33.0042 E_impro  =         2.2780 E_vdwl   =     -1010.1154 
E_coul   =      -851.0310 E_long   =         0.0000 Press    =         0.9556 
---------------- Step     1350 ----- CPU =      0.2362 (sec) ----------------
TotEng   =     -1386.9460 KinEng   =       224.7386 Temp     =       210.0143 
PotEng   =     -1611.6846 E_bond   =       135.5709 E_angle  =        65.2930 
E_dihed  =        38.0808 E_impro  =         2.0309 E_vdwl   =      -998.5831 
E_coul   =      -854.0770 E_long   =         0.0000 Press    =         2.0588 
---------------- Step     1400 ----- CPU =      0.2454 (sec) ----------------
TotEng   =     -1410.2199 KinEng   =       209.3817 Temp     =       195.6635 
PotEng   =     -1619.6015 E_bond   =       118.0499 E_angle  =        74.2718 
E_dihed  =        35.3642 E_impro  =         1.8728 E_vdwl   =      -998.8911 
E_coul   =      -850.2692 E_long   =         0.0000 Press    =         1.5618 
---------------- Step     1450 ----- CPU =      0.2540 (sec) ----------------
TotEng   =     -1401.2578 KinEng   =       207.0041 Temp     =       193.4417 
PotEng   =     -1608.2619 E_bond   =       125.7257 E_angle  =        76.8381 
E_dihed  =        32.6826 E_impro  =         1.8388 E_vdwl   =      -989.7685 
E_coul   =      -855.5785 E_long   =         0.0000 Press    =         2.0012 
---------------- Step     1500 ----- CPU =      0.2650 (sec) ----------------
TotEng   =     -1416.1345 KinEng   =       205.5395 Temp     =       192.0731 
PotEng   =     -1621.6740 E_bond   =       125.0154 E_angle  =        78.5835 
E_dihed  =        42.0289 E_impro  =         2.2722 E_vdwl   =     -1000.7498 
E_coul   =      -868.8243 E_long   =         0.0000 Press    =         0.4439 
---------------- Step     1550 ----- CPU =      0.2733 (sec) ----------------
TotEng   =     -1400.1405 KinEng   =       213.0295 Temp     =       199.0723 
PotEng   =     -1613.1700 E_bond   =       137.6830 E_angle  =        72.3471 
E_dihed  =        46.6272 E_impro  =         2.4121 E_vdwl   =     -1005.3962 
E_coul   =      -866.8431 E_long   =         0.0000 Press    =         0.1522 
---------------- Step     1600 ----- CPU =      0.2823 (sec) ----------------
TotEng   =     -1426.9439 KinEng   =       196.3117 Temp     =       183.4498 
PotEng   =     -1623.2556 E_bond   =       130.8371 E_angle  =        72.3742 
E_dihed  =        38.2046 E_impro  =         1.5338 E_vdwl   =     -1003.3431 
E_coul   =      -862.8623 E_long   =         0.0000 Press    =         0.4610 
---------------- Step     1650 ----- CPU =      0.2923 (sec) ----------------
TotEng   =     -1381.2048 KinEng   =       221.2212 Temp     =       206.7273 
PotEng   =     -1602.4259 E_bond   =       141.0643 E_angle  =        73.4375 
E_dihed  =        45.5856 E_impro  =         1.7740 E_vdwl   =     -1013.8699 
E_coul   =      -850.4174 E_long   =         0.0000 Press    =        -1.1533 
---------------- Step     1700 ----- CPU =      0.3023 (sec) ----------------
TotEng   =     -1398.9665 KinEng   =       200.1879 Temp     =       187.0721 
PotEng   =     -1599.1544 E_bond   =       141.9591 E_angle  =        77.3779 
E_dihed  =        41.3310 E_impro  =         3.6332 E_vdwl   =      -995.1482 
E_coul   =      -868.3074 E_long   =         0.0000 Press    =         0.4576 
---------------- Step     1750 ----- CPU =      0.3113 (sec) ----------------
TotEng   =     -1405.6009 KinEng   =       208.1826 Temp     =       194.5430 
PotEng   =     -1613.7835 E_bond   =       131.8895 E_angle  =        71.2237 
E_dihed  =        38.1240 E_impro  =         4.4264 E_vdwl   =      -993.6949 
E_coul   =      -865.7521 E_long   =         0.0000 Press    =         0.3362 
---------------- Step     1800 ----- CPU =      0.3203 (sec) ----------------
TotEng   =     -1385.7650 KinEng   =       215.0463 Temp     =       200.9571 
PotEng   =     -1600.8114 E_bond   =       131.9574 E_angle  =        78.6756 
E_dihed  =        33.7866 E_impro  =         4.9660 E_vdwl   =      -994.7995 
E_coul   =      -855.3974 E_long   =         0.0000 Press    =         0.4068 
---------------- Step     1850 ----- CPU =      0.3293 (sec) ----------------
TotEng   =     -1411.0835 KinEng   =       204.9187 Temp     =       191.4929 
PotEng   =     -1616.0022 E_bond   =       135.8609 E_angle  =        75.4756 
E_dihed  =        33.8265 E_impro  =         4.9099 E_vdwl   =     -1003.0042 
E_coul   =      -863.0709 E_long   =         0.0000 Press    =        -0.8643 
---------------- Step     1900 ----- CPU =      0.3380 (sec) ----------------
TotEng   =     -1400.9815 KinEng   =       212.0986 Temp     =       198.2024 
PotEng   =     -1613.0800 E_bond   =       133.7691 E_angle  =        73.0545 
E_dihed  =        38.5486 E_impro  =         3.8405 E_vdwl   =     -1001.7980 
E_coul   =      -860.4946 E_long   =         0.0000 Press    =        -1.3103 
---------------- Step     1950 ----- CPU =      0.3470 (sec) ----------------
TotEng   =     -1416.7026 KinEng   =       209.6718 Temp     =       195.9346 
PotEng   =     -1626.3744 E_bond   =       126.8903 E_angle  =        73.2429 
E_dihed  =        37.2889 E_impro  =         3.7821 E_vdwl   =     -1001.8532 
E_coul   =      -865.7254 E_long   =         0.0000 Press    =        -1.0528 
---------------- Step     2000 ----- CPU =      0.3571 (sec) ----------------
TotEng   =     -1426.8484 KinEng   =       207.4000 Temp     =       193.8117 
PotEng   =     -1634.2484 E_bond   =       109.2517 E_angle  =        74.7512 
E_dihed  =        38.8692 E_impro  =         2.2140 E_vdwl   =      -993.1909 
E_coul   =      -866.1437 E_long   =         0.0000 Press    =         0.0513 
---------------- Step     2050 ----- CPU =      0.3660 (sec) ----------------
TotEng   =     -1426.5802 KinEng   =       220.2888 Temp     =       205.8561 
PotEng   =     -1646.8689 E_bond   =       108.2760 E_angle  =        68.0160 
E_dihed  =        39.2277 E_impro  =         2.4850 E_vdwl   =      -993.9268 
E_coul   =      -870.9469 E_long   =         0.0000 Press    =        -0.3087 
---------------- Step     2100 ----- CPU =      0.3745 (sec) ----------------
TotEng   =     -1446.0995 KinEng   =       193.6929 Temp     =       181.0026 
PotEng   =     -1639.7924 E_bond   =       117.5837 E_angle  =        68.4419 
E_dihed  =        36.7330 E_impro  =         1.9331 E_vdwl   =      -990.5605 
E_coul   =      -873.9235 E_long   =         0.0000 Press    =         0.0250 
---------------- Step     2150 ----- CPU =      0.3855 (sec) ----------------
TotEng   =     -1421.6378 KinEng   =       207.9188 Temp     =       194.2965 
PotEng   =     -1629.5566 E_bond   =       116.7170 E_angle  =        69.0908 
E_dihed  =        44.5939 E_impro  =         1.4376 E_vdwl   =      -985.5233 
E_coul   =      -875.8726 E_long   =         0.0000 Press    =         0.1913 
---------------- Step     2200 ----- CPU =      0.3945 (sec) ----------------
TotEng   =     -1429.1430 KinEng   =       218.3169 Temp     =       204.0134 
PotEng   =     -1647.4599 E_bond   =       108.4671 E_angle  =        68.5890 
E_dihed  =        35.9785 E_impro  =         1.4283 E_vdwl   =      -993.8688 
E_coul   =      -868.0540 E_long   =         0.0000 Press    =        -0.5418 
---------------- Step     2250 ----- CPU =      0.4025 (sec) ----------------
TotEng   =     -1439.6029 KinEng   =       206.4912 Temp     =       192.9624 
PotEng   =     -1646.0941 E_bond   =       110.0624 E_angle  =        70.2552 
E_dihed  =        36.3855 E_impro  =         1.4743 E_vdwl   =      -997.5418 
E_coul   =      -866.7297 E_long   =         0.0000 Press    =        -1.3003 
---------------- Step     2300 ----- CPU =      0.4115 (sec) ----------------
TotEng   =     -1436.7912 KinEng   =       200.3747 Temp     =       187.2467 
PotEng   =     -1637.1659 E_bond   =       118.5342 E_angle  =        70.9936 
E_dihed  =        38.2487 E_impro  =         1.3784 E_vdwl   =     -1003.4594 
E_coul   =      -862.8615 E_long   =         0.0000 Press    =        -1.0440 
---------------- Step     2350 ----- CPU =      0.4205 (sec) ----------------
TotEng   =     -1419.9205 KinEng   =       216.1176 Temp     =       201.9581 
PotEng   =     -1636.0381 E_bond   =       123.8575 E_angle  =        75.1387 
E_dihed  =        33.3893 E_impro  =         1.9096 E_vdwl   =      -992.2842 
E_coul   =      -878.0490 E_long   =         0.0000 Press    =        -0.5174 
---------------- Step     2400 ----- CPU =      0.4301 (sec) ----------------
TotEng   =     -1425.8787 KinEng   =       204.9168 Temp     =       191.4912 
PotEng   =     -1630.7955 E_bond   =       126.6867 E_angle  =        72.6700 
E_dihed  =        38.0999 E_impro  =         1.8637 E_vdwl   =     -1000.2961 
E_coul   =      -869.8197 E_long   =         0.0000 Press    =        -0.6619 
---------------- Step     2450 ----- CPU =      0.4391 (sec) ----------------
TotEng   =     -1410.2472 KinEng   =       218.4575 Temp     =       204.1448 
PotEng   =     -1628.7047 E_bond   =       120.7115 E_angle  =        68.9256 
E_dihed  =        40.9948 E_impro  =         1.0083 E_vdwl   =      -988.6509 
E_coul   =      -871.6940 E_long   =         0.0000 Press    =        -0.7530 
---------------- Step     2500 ----- CPU =      0.4494 (sec) ----------------
TotEng   =     -1414.5861 KinEng   =       218.3192 Temp     =       204.0155 
PotEng   =     -1632.9053 E_bond   =       125.7987 E_angle  =        68.8551 
E_dihed  =        36.1989 E_impro  =         1.5546 E_vdwl   =     -1006.5373 
E_coul   =      -858.7752 E_long   =         0.0000 Press    =        -1.6937 
---------------- Step     2550 ----- CPU =      0.4574 (sec) ----------------
TotEng   =     -1421.6814 KinEng   =       217.9049 Temp     =       203.6284 
PotEng   =     -1639.5863 E_bond   =       118.3691 E_angle  =        67.7562 
E_dihed  =        32.9653 E_impro  =         1.6153 E_vdwl   =      -999.9083 
E_coul   =      -860.3839 E_long   =         0.0000 Press    =        -1.8172 
---------------- Step     2600 ----- CPU =      0.4679 (sec) ----------------
TotEng   =     -1415.5481 KinEng   =       218.3150 Temp     =       204.0116 
PotEng   =     -1633.8631 E_bond   =       121.9664 E_angle  =        69.1511 
E_dihed  =        37.6395 E_impro  =         1.7426 E_vdwl   =     -1004.1475 
E_coul   =      -860.2153 E_long   =         0.0000 Press    =        -1.4516 
---------------- Step     2650 ----- CPU =      0.4769 (sec) ----------------
TotEng   =     -1403.3559 KinEng   =       223.5070 Temp     =       208.8635 
PotEng   =     -1626.8629 E_bond   =       129.2102 E_angle  =        73.5817 
E_dihed  =        34.9399 E_impro  =         1.2735 E_vdwl   =      -999.0297 
E_coul   =      -866.8385 E_long   =         0.0000 Press    =        -1.7826 
---------------- Step     2700 ----- CPU =      0.4859 (sec) ----------------
TotEng   =     -1411.7853 KinEng   =       198.8562 Temp     =       185.8277 
PotEng   =     -1610.6415 E_bond   =       131.7178 E_angle  =        76.3269 
E_dihed  =        33.9249 E_impro  =         2.3509 E_vdwl   =      -985.6507 
E_coul   =      -869.3114 E_long   =         0.0000 Press    =        -1.7982 
---------------- Step     2750 ----- CPU =      0.4949 (sec) ----------------
TotEng   =     -1408.3407 KinEng   =       209.8392 Temp     =       196.0911 
PotEng   =     -1618.1798 E_bond   =       130.8041 E_angle  =        70.1028 
E_dihed  =        35.2433 E_impro  =         2.5676 E_vdwl   =      -993.3166 
E_coul   =      -863.5810 E_long   =         0.0000 Press    =        -1.6044 
---------------- Step     2800 ----- CPU =      0.5039 (sec) ----------------
TotEng   =     -1433.8851 KinEng   =       201.0261 Temp     =       187.8554 
PotEng   =     -1634.9113 E_bond   =       120.7512 E_angle  =        72.0342 
E_dihed  =        34.1045 E_impro  =         1.4440 E_vdwl   =     -1004.3074 
E_coul   =      -858.9378 E_long   =         0.0000 Press    =        -1.8690 
---------------- Step     2850 ----- CPU =      0.5129 (sec) ----------------
TotEng   =     -1418.6145 KinEng   =       217.2832 Temp     =       203.0474 
PotEng   =     -1635.8976 E_bond   =       122.8090 E_angle  =        75.7456 
E_dihed  =        33.0718 E_impro  =         1.4132 E_vdwl   =     -1003.2330 
E_coul   =      -865.7042 E_long   =         0.0000 Press    =        -1.6678 
---------------- Step     2900 ----- CPU =      0.5229 (sec) ----------------
TotEng   =     -1403.5500 KinEng   =       226.4664 Temp     =       211.6289 
PotEng   =     -1630.0164 E_bond   =       128.4412 E_angle  =        75.7070 
E_dihed  =        34.7481 E_impro  =         2.0327 E_vdwl   =      -992.3940 
E_coul   =      -878.5515 E_long   =         0.0000 Press    =        -0.9945 
---------------- Step     2950 ----- CPU =      0.5329 (sec) ----------------
TotEng   =     -1442.6227 KinEng   =       201.3777 Temp     =       188.1840 
PotEng   =     -1644.0004 E_bond   =       115.9524 E_angle  =        78.8479 
E_dihed  =        31.1233 E_impro  =         2.0560 E_vdwl   =      -994.8419 
E_coul   =      -877.1380 E_long   =         0.0000 Press    =        -0.4429 
---------------- Step     3000 ----- CPU =      0.5419 (sec) ----------------
TotEng   =     -1446.5891 KinEng   =       194.4816 Temp     =       181.7397 
PotEng   =     -1641.0708 E_bond   =       112.4494 E_angle  =        78.0249 
E_dihed  =        34.7299 E_impro  =         1.6767 E_vdwl   =      -994.8798 
E_coul   =      -873.0719 E_long   =         0.0000 Press    =        -0.3724 
---------------- Step     3050 ----- CPU =      0.5509 (sec) ----------------
TotEng   =     -1405.5653 KinEng   =       227.5115 Temp     =       212.6056 
PotEng   =     -1633.0768 E_bond   =       112.8984 E_angle  =        75.7037 
E_dihed  =        30.1491 E_impro  =         1.4812 E_vdwl   =      -980.4630 
E_coul   =      -872.8463 E_long   =         0.0000 Press    =         1.2032 
---------------- Step     3100 ----- CPU =      0.5599 (sec) ----------------
TotEng   =     -1456.0094 KinEng   =       192.8976 Temp     =       180.2595 
PotEng   =     -1648.9070 E_bond   =       103.3226 E_angle  =        74.1306 
E_dihed  =        32.1837 E_impro  =         1.7305 E_vdwl   =      -990.6120 
E_coul   =      -869.6624 E_long   =         0.0000 Press    =        -0.1619 
---------------- Step     3150 ----- CPU =      0.5689 (sec) ----------------
TotEng   =     -1423.2218 KinEng   =       220.1779 Temp     =       205.7524 
PotEng   =     -1643.3997 E_bond   =       111.1599 E_angle  =        73.9579 
E_dihed  =        32.0713 E_impro  =         2.9659 E_vdwl   =     -1000.9690 
E_coul   =      -862.5857 E_long   =         0.0000 Press    =        -1.0678 
---------------- Step     3200 ----- CPU =      0.5779 (sec) ----------------
TotEng   =     -1447.6231 KinEng   =       194.1961 Temp     =       181.4729 
PotEng   =     -1641.8192 E_bond   =       106.7914 E_angle  =        68.2730 
E_dihed  =        35.6602 E_impro  =         3.1922 E_vdwl   =      -994.6491 
E_coul   =      -861.0868 E_long   =         0.0000 Press    =        -1.1287 
---------------- Step     3250 ----- CPU =      0.5870 (sec) ----------------
TotEng   =     -1431.0557 KinEng   =       220.5451 Temp     =       206.0956 
PotEng   =     -1651.6008 E_bond   =       101.9456 E_angle  =        69.4558 
E_dihed  =        37.0106 E_impro  =         2.8183 E_vdwl   =      -999.0099 
E_coul   =      -863.8212 E_long   =         0.0000 Press    =        -0.7328 
---------------- Step     3300 ----- CPU =      0.5949 (sec) ----------------
TotEng   =     -1429.7995 KinEng   =       206.3818 Temp     =       192.8602 
PotEng   =     -1636.1813 E_bond   =       117.4981 E_angle  =        71.9805 
E_dihed  =        38.9595 E_impro  =         2.4367 E_vdwl   =     -1000.8639 
E_coul   =      -866.1922 E_long   =         0.0000 Press    =        -1.0982 
---------------- Step     3350 ----- CPU =      0.6049 (sec) ----------------
TotEng   =     -1409.6902 KinEng   =       211.0602 Temp     =       197.2321 
PotEng   =     -1620.7504 E_bond   =       120.6810 E_angle  =        73.9445 
E_dihed  =        36.3451 E_impro  =         3.3046 E_vdwl   =      -991.8276 
E_coul   =      -863.1980 E_long   =         0.0000 Press    =        -1.4041 
---------------- Step     3400 ----- CPU =      0.6139 (sec) ----------------
TotEng   =     -1416.0103 KinEng   =       205.7106 Temp     =       192.2330 
PotEng   =     -1621.7209 E_bond   =       120.6104 E_angle  =        72.0171 
E_dihed  =        36.9988 E_impro  =         3.5951 E_vdwl   =      -994.5391 
E_coul   =      -860.4033 E_long   =         0.0000 Press    =        -1.2746 
---------------- Step     3450 ----- CPU =      0.6225 (sec) ----------------
TotEng   =     -1434.7341 KinEng   =       208.3448 Temp     =       194.6946 
PotEng   =     -1643.0788 E_bond   =       124.5531 E_angle  =        71.0362 
E_dihed  =        36.7016 E_impro  =         3.7208 E_vdwl   =     -1012.3834 
E_coul   =      -866.7072 E_long   =         0.0000 Press    =        -1.9266 
---------------- Step     3500 ----- CPU =      0.6325 (sec) ----------------
TotEng   =     -1428.3331 KinEng   =       204.2791 Temp     =       190.8953 
PotEng   =     -1632.6122 E_bond   =       125.8784 E_angle  =        71.1049 
E_dihed  =        41.7089 E_impro  =         3.9017 E_vdwl   =     -1007.4106 
E_coul   =      -867.7955 E_long   =         0.0000 Press    =        -1.7972 
---------------- Step     3550 ----- CPU =      0.6405 (sec) ----------------
TotEng   =     -1414.4816 KinEng   =       212.7368 Temp     =       198.7988 
PotEng   =     -1627.2183 E_bond   =       130.0356 E_angle  =        73.7038 
E_dihed  =        31.6714 E_impro  =         6.4946 E_vdwl   =     -1005.0638 
E_coul   =      -864.0600 E_long   =         0.0000 Press    =        -1.4301 
---------------- Step     3600 ----- CPU =      0.6505 (sec) ----------------
TotEng   =     -1425.3949 KinEng   =       208.1340 Temp     =       194.4977 
PotEng   =     -1633.5290 E_bond   =       132.2178 E_angle  =        73.0040 
E_dihed  =        34.9427 E_impro  =         5.1759 E_vdwl   =     -1018.2146 
E_coul   =      -860.6548 E_long   =         0.0000 Press    =        -1.7389 
---------------- Step     3650 ----- CPU =      0.6599 (sec) ----------------
TotEng   =     -1424.1381 KinEng   =       210.2080 Temp     =       196.4357 
PotEng   =     -1634.3461 E_bond   =       125.5886 E_angle  =        69.3303 
E_dihed  =        37.0325 E_impro  =         3.8198 E_vdwl   =     -1013.7739 
E_coul   =      -856.3434 E_long   =         0.0000 Press    =        -1.6725 
---------------- Step     3700 ----- CPU =      0.6679 (sec) ----------------
TotEng   =     -1444.8167 KinEng   =       191.5444 Temp     =       178.9950 
PotEng   =     -1636.3612 E_bond   =       119.7841 E_angle  =        68.7651 
E_dihed  =        36.1972 E_impro  =         5.7504 E_vdwl   =     -1005.8572 
E_coul   =      -861.0008 E_long   =         0.0000 Press    =        -2.2474 
---------------- Step     3750 ----- CPU =      0.6769 (sec) ----------------
TotEng   =     -1410.2086 KinEng   =       219.5268 Temp     =       205.1440 
PotEng   =     -1629.7353 E_bond   =       131.2277 E_angle  =        63.1433 
E_dihed  =        39.3405 E_impro  =         5.0407 E_vdwl   =     -1003.0588 
E_coul   =      -865.4287 E_long   =         0.0000 Press    =        -2.4226 
---------------- Step     3800 ----- CPU =      0.6859 (sec) ----------------
TotEng   =     -1417.8134 KinEng   =       214.5912 Temp     =       200.5318 
PotEng   =     -1632.4046 E_bond   =       126.2019 E_angle  =        72.3835 
E_dihed  =        37.9711 E_impro  =         5.1056 E_vdwl   =     -1012.0310 
E_coul   =      -862.0357 E_long   =         0.0000 Press    =        -2.8477 
---------------- Step     3850 ----- CPU =      0.6949 (sec) ----------------
TotEng   =     -1432.5717 KinEng   =       212.9911 Temp     =       199.0365 
PotEng   =     -1645.5628 E_bond   =       124.5336 E_angle  =        67.7595 
E_dihed  =        40.9779 E_impro  =         3.8536 E_vdwl   =     -1022.0767 
E_coul   =      -860.6107 E_long   =         0.0000 Press    =        -4.1499 
---------------- Step     3900 ----- CPU =      0.7039 (sec) ----------------
TotEng   =     -1413.1009 KinEng   =       226.8173 Temp     =       211.9569 
PotEng   =     -1639.9182 E_bond   =       118.6965 E_angle  =        69.0094 
E_dihed  =        39.7808 E_impro  =         3.3238 E_vdwl   =     -1008.2364 
E_coul   =      -862.4923 E_long   =         0.0000 Press    =        -2.4661 
---------------- Step     3950 ----- CPU =      0.7129 (sec) ----------------
TotEng   =     -1414.4534 KinEng   =       212.4199 Temp     =       198.5027 
PotEng   =     -1626.8733 E_bond   =       125.4423 E_angle  =        67.5430 
E_dihed  =        43.2038 E_impro  =         5.5942 E_vdwl   =     -1014.3456 
E_coul   =      -854.3110 E_long   =         0.0000 Press    =        -2.5297 
---------------- Step     4000 ----- CPU =      0.7219 (sec) ----------------
TotEng   =     -1422.2209 KinEng   =       206.3530 Temp     =       192.8333 
PotEng   =     -1628.5739 E_bond   =       123.2922 E_angle  =        67.7413 
E_dihed  =        41.2519 E_impro  =         3.4511 E_vdwl   =     -1013.7447 
E_coul   =      -850.5657 E_long   =         0.0000 Press    =        -2.5459 
---------------- Step     4050 ----- CPU =      0.7309 (sec) ----------------
TotEng   =     -1438.4708 KinEng   =       206.3054 Temp     =       192.7889 
PotEng   =     -1644.7762 E_bond   =       110.1691 E_angle  =        70.8010 
E_dihed  =        40.5453 E_impro  =         2.1287 E_vdwl   =     -1016.7255 
E_coul   =      -851.6948 E_long   =         0.0000 Press    =        -2.6114 
---------------- Step     4100 ----- CPU =      0.7399 (sec) ----------------
TotEng   =     -1445.3193 KinEng   =       190.2432 Temp     =       177.7790 
PotEng   =     -1635.5625 E_bond   =       114.3171 E_angle  =        69.0041 
E_dihed  =        39.5613 E_impro  =         2.4746 E_vdwl   =      -999.7841 
E_coul   =      -861.1355 E_long   =         0.0000 Press    =        -2.4432 
---------------- Step     4150 ----- CPU =      0.7489 (sec) ----------------
TotEng   =     -1426.1926 KinEng   =       211.6493 Temp     =       197.7826 
PotEng   =     -1637.8419 E_bond   =       113.0415 E_angle  =        68.7617 
E_dihed  =        35.5412 E_impro  =         3.4025 E_vdwl   =      -994.9718 
E_coul   =      -863.6171 E_long   =         0.0000 Press    =        -1.9767 
---------------- Step     4200 ----- CPU =      0.7579 (sec) ----------------
TotEng   =     -1404.0030 KinEng   =       228.3859 Temp     =       213.4227 
PotEng   =     -1632.3889 E_bond   =        99.8695 E_angle  =        72.9599 
E_dihed  =        39.1838 E_impro  =         3.3419 E_vdwl   =      -998.0878 
E_coul   =      -849.6561 E_long   =         0.0000 Press    =        -1.0429 
---------------- Step     4250 ----- CPU =      0.7685 (sec) ----------------
TotEng   =     -1428.8230 KinEng   =       203.9849 Temp     =       190.6203 
PotEng   =     -1632.8079 E_bond   =       106.2846 E_angle  =        70.7220 
E_dihed  =        36.0145 E_impro  =         4.7734 E_vdwl   =      -992.3011 
E_coul   =      -858.3013 E_long   =         0.0000 Press    =        -0.5792 
---------------- Step     4300 ----- CPU =      0.7775 (sec) ----------------
TotEng   =     -1420.1585 KinEng   =       206.7660 Temp     =       193.2193 
PotEng   =     -1626.9245 E_bond   =       117.0476 E_angle  =        75.5475 
E_dihed  =        29.9538 E_impro  =         2.1855 E_vdwl   =      -988.0337 
E_coul   =      -863.6254 E_long   =         0.0000 Press    =         0.2800 
---------------- Step     4350 ----- CPU =      0.7865 (sec) ----------------
TotEng   =     -1433.8156 KinEng   =       196.9059 Temp     =       184.0051 
PotEng   =     -1630.7215 E_bond   =       118.5416 E_angle  =        74.7434 
E_dihed  =        32.0340 E_impro  =         1.5929 E_vdwl   =      -998.2084 
E_coul   =      -859.4250 E_long   =         0.0000 Press    =        -0.5665 
---------------- Step     4400 ----- CPU =      0.7954 (sec) ----------------
TotEng   =     -1444.9314 KinEng   =       187.5393 Temp     =       175.2522 
PotEng   =     -1632.4707 E_bond   =       107.7148 E_angle  =        74.8117 
E_dihed  =        32.6897 E_impro  =         1.7627 E_vdwl   =      -987.2354 
E_coul   =      -862.2142 E_long   =         0.0000 Press    =        -0.2942 
---------------- Step     4450 ----- CPU =      0.8035 (sec) ----------------
TotEng   =     -1425.8068 KinEng   =       208.8465 Temp     =       195.1634 
PotEng   =     -1634.6532 E_bond   =       104.6348 E_angle  =        72.2404 
E_dihed  =        35.7331 E_impro  =         1.0055 E_vdwl   =      -978.0896 
E_coul   =      -870.1774 E_long   =         0.0000 Press    =         0.5922 
---------------- Step     4500 ----- CPU =      0.8135 (sec) ----------------
TotEng   =     -1442.2002 KinEng   =       202.1522 Temp     =       188.9077 
PotEng   =     -1644.3523 E_bond   =       106.4025 E_angle  =        74.2096 
E_dihed  =        40.2963 E_impro  =         1.0406 E_vdwl   =     -1003.7806 
E_coul   =      -862.5207 E_long   =         0.0000 Press    =        -1.4759 
---------------- Step     4550 ----- CPU =      0.8225 (sec) ----------------
TotEng   =     -1433.7220 KinEng   =       211.6855 Temp     =       197.8164 
PotEng   =     -1645.4075 E_bond   =       107.8206 E_angle  =        72.9959 
E_dihed  =        43.0019 E_impro  =         2.0473 E_vdwl   =     -1009.4410 
E_coul   =      -861.8321 E_long   =         0.0000 Press    =        -1.7932 
---------------- Step     4600 ----- CPU =      0.8315 (sec) ----------------
TotEng   =     -1428.5141 KinEng   =       208.6596 Temp     =       194.9887 
PotEng   =     -1637.1736 E_bond   =       102.0791 E_angle  =        77.0468 
E_dihed  =        40.3165 E_impro  =         1.5543 E_vdwl   =      -993.5470 
E_coul   =      -864.6233 E_long   =         0.0000 Press    =        -0.3724 
---------------- Step     4650 ----- CPU =      0.8405 (sec) ----------------
TotEng   =     -1434.2218 KinEng   =       191.3636 Temp     =       178.8260 
PotEng   =     -1625.5854 E_bond   =        99.9520 E_angle  =        73.8412 
E_dihed  =        35.7532 E_impro  =         1.2328 E_vdwl   =      -966.2863 
E_coul   =      -870.0783 E_long   =         0.0000 Press    =         1.5736 
---------------- Step     4700 ----- CPU =      0.8495 (sec) ----------------
TotEng   =     -1416.2195 KinEng   =       198.7692 Temp     =       185.7464 
PotEng   =     -1614.9887 E_bond   =       121.0742 E_angle  =        72.5684 
E_dihed  =        33.8525 E_impro  =         1.1769 E_vdwl   =      -976.7984 
E_coul   =      -866.8623 E_long   =         0.0000 Press    =         0.8759 
---------------- Step     4750 ----- CPU =      0.8580 (sec) ----------------
TotEng   =     -1414.4675 KinEng   =       219.4484 Temp     =       205.0708 
PotEng   =     -1633.9160 E_bond   =       114.2502 E_angle  =        72.3912 
E_dihed  =        30.7186 E_impro  =         1.1696 E_vdwl   =      -982.2674 
E_coul   =      -870.1782 E_long   =         0.0000 Press    =         0.8283 
---------------- Step     4800 ----- CPU =      0.8670 (sec) ----------------
TotEng   =     -1414.7806 KinEng   =       209.6884 Temp     =       195.9502 
PotEng   =     -1624.4690 E_bond   =       108.6181 E_angle  =        74.3276 
E_dihed  =        30.5117 E_impro  =         3.6862 E_vdwl   =      -980.1835 
E_coul   =      -861.4291 E_long   =         0.0000 Press    =         1.4839 
---------------- Step     4850 ----- CPU =      0.8760 (sec) ----------------
TotEng   =     -1428.3779 KinEng   =       209.2908 Temp     =       195.5786 
PotEng   =     -1637.6688 E_bond   =       102.6056 E_angle  =        75.1471 
E_dihed  =        28.7595 E_impro  =         1.6020 E_vdwl   =      -986.1536 
E_coul   =      -859.6293 E_long   =         0.0000 Press    =         0.6442 
---------------- Step     4900 ----- CPU =      0.8850 (sec) ----------------
TotEng   =     -1400.5932 KinEng   =       221.9578 Temp     =       207.4158 
PotEng   =     -1622.5510 E_bond   =       108.3512 E_angle  =        73.7181 
E_dihed  =        36.1790 E_impro  =         1.6554 E_vdwl   =      -974.1517 
E_coul   =      -868.3029 E_long   =         0.0000 Press    =         1.1243 
---------------- Step     4950 ----- CPU =      0.8940 (sec) ----------------
TotEng   =     -1409.7906 KinEng   =       218.0156 Temp     =       203.7318 
PotEng   =     -1627.8062 E_bond   =       111.5865 E_angle  =        72.3283 
E_dihed  =        36.5141 E_impro  =         2.4503 E_vdwl   =      -976.1346 
E_coul   =      -874.5508 E_long   =         0.0000 Press    =         1.3108 
---------------- Step     5000 ----- CPU =      0.9050 (sec) ----------------
TotEng   =     -1419.7103 KinEng   =       217.5252 Temp     =       203.2735 
PotEng   =     -1637.2355 E_bond   =       106.7670 E_angle  =        79.7416 
E_dihed  =        30.3702 E_impro  =         3.1516 E_vdwl   =      -978.7527 
E_coul   =      -878.5132 E_long   =         0.0000 Press    =         0.8667 
---------------- Step     5050 ----- CPU =      0.9130 (sec) ----------------
TotEng   =     -1425.2356 KinEng   =       198.7977 Temp     =       185.7730 
PotEng   =     -1624.0333 E_bond   =        99.7252 E_angle  =        75.9853 
E_dihed  =        32.7145 E_impro  =         4.2827 E_vdwl   =      -965.9053 
E_coul   =      -870.8358 E_long   =         0.0000 Press    =         1.2000 
---------------- Step     5100 ----- CPU =      0.9220 (sec) ----------------
TotEng   =     -1441.3132 KinEng   =       189.2816 Temp     =       176.8804 
PotEng   =     -1630.5948 E_bond   =       105.3007 E_angle  =        71.0263 
E_dihed  =        36.6485 E_impro  =         2.8118 E_vdwl   =      -985.4028 
E_coul   =      -860.9794 E_long   =         0.0000 Press    =         0.2794 
---------------- Step     5150 ----- CPU =      0.9310 (sec) ----------------
TotEng   =     -1440.3449 KinEng   =       195.1885 Temp     =       182.4002 
PotEng   =     -1635.5334 E_bond   =        99.8144 E_angle  =        73.7034 
E_dihed  =        32.7016 E_impro  =         2.7299 E_vdwl   =      -988.5806 
E_coul   =      -855.9022 E_long   =         0.0000 Press    =        -0.1976 
---------------- Step     5200 ----- CPU =      0.9400 (sec) ----------------
TotEng   =     -1427.7632 KinEng   =       193.0327 Temp     =       180.3858 
PotEng   =     -1620.7960 E_bond   =       116.1208 E_angle  =        77.4450 
E_dihed  =        30.5289 E_impro  =         3.2344 E_vdwl   =      -990.7027 
E_coul   =      -857.4225 E_long   =         0.0000 Press    =        -0.0406 
---------------- Step     5250 ----- CPU =      0.9495 (sec) ----------------
TotEng   =     -1402.7360 KinEng   =       216.1333 Temp     =       201.9728 
PotEng   =     -1618.8693 E_bond   =       121.2510 E_angle  =        75.0098 
E_dihed  =        32.4739 E_impro  =         2.4481 E_vdwl   =      -987.7634 
E_coul   =      -862.2888 E_long   =         0.0000 Press    =        -0.0035 
---------------- Step     5300 ----- CPU =      0.9591 (sec) ----------------
TotEng   =     -1418.3788 KinEng   =       206.3854 Temp     =       192.8636 
PotEng   =     -1624.7642 E_bond   =       107.6821 E_angle  =        76.6633 
E_dihed  =        29.7368 E_impro  =         2.5932 E_vdwl   =      -983.2537 
E_coul   =      -858.1859 E_long   =         0.0000 Press    =        -0.2572 
---------------- Step     5350 ----- CPU =      0.9681 (sec) ----------------
TotEng   =     -1404.2781 KinEng   =       206.7073 Temp     =       193.1644 
PotEng   =     -1610.9853 E_bond   =        98.7959 E_angle  =        73.4781 
E_dihed  =        34.1101 E_impro  =         2.3548 E_vdwl   =      -962.2221 
E_coul   =      -857.5021 E_long   =         0.0000 Press    =         1.0157 
---------------- Step     5400 ----- CPU =      0.9771 (sec) ----------------
TotEng   =     -1394.1200 KinEng   =       227.4617 Temp     =       212.5590 
PotEng   =     -1621.5817 E_bond   =       103.6271 E_angle  =        70.7229 
E_dihed  =        34.6374 E_impro  =         1.7473 E_vdwl   =      -965.0135 
E_coul   =      -867.3029 E_long   =         0.0000 Press    =         1.5265 
---------------- Step     5450 ----- CPU =      0.9851 (sec) ----------------
TotEng   =     -1428.6907 KinEng   =       205.6082 Temp     =       192.1373 
PotEng   =     -1634.2989 E_bond   =       111.7162 E_angle  =        69.9870 
E_dihed  =        29.4365 E_impro  =         2.1174 E_vdwl   =      -972.8594 
E_coul   =      -874.6966 E_long   =         0.0000 Press    =         1.2034 
---------------- Step     5500 ----- CPU =      0.9951 (sec) ----------------
TotEng   =     -1421.4102 KinEng   =       201.7578 Temp     =       188.5391 
PotEng   =     -1623.1680 E_bond   =       124.0900 E_angle  =        71.7511 
E_dihed  =        29.9634 E_impro  =         2.9198 E_vdwl   =      -979.1506 
E_coul   =      -872.7416 E_long   =         0.0000 Press    =         0.2916 
---------------- Step     5550 ----- CPU =      1.0041 (sec) ----------------
TotEng   =     -1423.3257 KinEng   =       207.3423 Temp     =       193.7578 
PotEng   =     -1630.6680 E_bond   =       112.9941 E_angle  =        72.2731 
E_dihed  =        31.8949 E_impro  =         4.5936 E_vdwl   =      -990.1918 
E_coul   =      -862.2319 E_long   =         0.0000 Press    =        -0.5455 
---------------- Step     5600 ----- CPU =      1.0131 (sec) ----------------
TotEng   =     -1439.9820 KinEng   =       200.4623 Temp     =       187.3286 
PotEng   =     -1640.4443 E_bond   =       110.4225 E_angle  =        69.6958 
E_dihed  =        30.5155 E_impro  =         4.2521 E_vdwl   =      -998.1781 
E_coul   =      -857.1521 E_long   =         0.0000 Press    =        -1.1081 
---------------- Step     5650 ----- CPU =      1.0221 (sec) ----------------
TotEng   =     -1409.5536 KinEng   =       214.1101 Temp     =       200.0821 
PotEng   =     -1623.6637 E_bond   =       120.0652 E_angle  =        75.0983 
E_dihed  =        32.1717 E_impro  =         3.2613 E_vdwl   =      -990.1776 
E_coul   =      -864.0826 E_long   =         0.0000 Press    =        -0.4748 
---------------- Step     5700 ----- CPU =      1.0311 (sec) ----------------
TotEng   =     -1421.8192 KinEng   =       195.8276 Temp     =       182.9975 
PotEng   =     -1617.6468 E_bond   =       120.1256 E_angle  =        70.6488 
E_dihed  =        35.1996 E_impro  =         3.4357 E_vdwl   =      -979.6448 
E_coul   =      -867.4118 E_long   =         0.0000 Press    =        -0.7934 
---------------- Step     5750 ----- CPU =      1.0391 (sec) ----------------
TotEng   =     -1444.3216 KinEng   =       196.4969 Temp     =       183.6229 
PotEng   =     -1640.8184 E_bond   =       109.8927 E_angle  =        72.4520 
E_dihed  =        31.9189 E_impro  =         3.0243 E_vdwl   =      -976.0865 
E_coul   =      -882.0198 E_long   =         0.0000 Press    =        -0.6776 
---------------- Step     5800 ----- CPU =      1.0491 (sec) ----------------
TotEng   =     -1421.9225 KinEng   =       217.0495 Temp     =       202.8290 
PotEng   =     -1638.9720 E_bond   =       108.9672 E_angle  =        78.2640 
E_dihed  =        31.2162 E_impro  =         3.4127 E_vdwl   =      -978.5826 
E_coul   =      -882.2495 E_long   =         0.0000 Press    =        -0.2755 
---------------- Step     5850 ----- CPU =      1.0581 (sec) ----------------
TotEng   =     -1426.8783 KinEng   =       211.3386 Temp     =       197.4922 
PotEng   =     -1638.2168 E_bond   =       104.7620 E_angle  =        70.6220 
E_dihed  =        35.4064 E_impro  =         2.5409 E_vdwl   =      -973.6410 
E_coul   =      -877.9072 E_long   =         0.0000 Press    =         0.2789 
---------------- Step     5900 ----- CPU =      1.0671 (sec) ----------------
TotEng   =     -1427.3940 KinEng   =       206.6305 Temp     =       193.0926 
PotEng   =     -1634.0245 E_bond   =       111.9146 E_angle  =        72.4849 
E_dihed  =        35.8354 E_impro  =         3.5053 E_vdwl   =      -979.8944 
E_coul   =      -877.8703 E_long   =         0.0000 Press    =        -0.4219 
---------------- Step     5950 ----- CPU =      1.0761 (sec) ----------------
TotEng   =     -1424.6826 KinEng   =       216.3187 Temp     =       202.1461 
PotEng   =     -1641.0013 E_bond   =       103.4315 E_angle  =        73.3936 
E_dihed  =        38.5103 E_impro  =         2.6351 E_vdwl   =      -984.8057 
E_coul   =      -874.1661 E_long   =         0.0000 Press    =        -0.9481 
---------------- Step     6000 ----- CPU =      1.0891 (sec) ----------------
TotEng   =     -1443.3092 KinEng   =       199.2777 Temp     =       186.2215 
PotEng   =     -1642.5869 E_bond   =        99.7915 E_angle  =        69.4039 
E_dihed  =        40.2718 E_impro  =         3.0620 E_vdwl   =      -987.5212 
E_coul   =      -867.5949 E_long   =         0.0000 Press    =        -1.6966 
---------------- Step     6050 ----- CPU =      1.0981 (sec) ----------------
TotEng   =     -1416.0912 KinEng   =       215.0492 Temp     =       200.9598 
PotEng   =     -1631.1404 E_bond   =       106.6012 E_angle  =        71.0932 
E_dihed  =        38.6190 E_impro  =         3.4004 E_vdwl   =      -980.8134 
E_coul   =      -870.0407 E_long   =         0.0000 Press    =         0.1922 
---------------- Step     6100 ----- CPU =      1.1061 (sec) ----------------
TotEng   =     -1430.7058 KinEng   =       214.0146 Temp     =       199.9929 
PotEng   =     -1644.7204 E_bond   =       100.4616 E_angle  =        69.2418 
E_dihed  =        37.9484 E_impro  =         2.9267 E_vdwl   =      -983.7739 
E_coul   =      -871.5251 E_long   =         0.0000 Press    =        -0.4018 
---------------- Step     6150 ----- CPU =      1.1151 (sec) ----------------
TotEng   =     -1441.3737 KinEng   =       198.7166 Temp     =       185.6972 
PotEng   =     -1640.0902 E_bond   =       111.7768 E_angle  =        68.5047 
E_dihed  =        35.2665 E_impro  =         2.8791 E_vdwl   =      -994.0689 
E_coul   =      -864.4484 E_long   =         0.0000 Press    =        -0.3315 
---------------- Step     6200 ----- CPU =      1.1242 (sec) ----------------
TotEng   =     -1436.4290 KinEng   =       200.9699 Temp     =       187.8029 
PotEng   =     -1637.3989 E_bond   =       100.2232 E_angle  =        74.7307 
E_dihed  =        32.8863 E_impro  =         2.0029 E_vdwl   =      -972.8617 
E_coul   =      -874.3803 E_long   =         0.0000 Press    =         1.7544 
---------------- Step     6250 ----- CPU =      1.1344 (sec) ----------------
TotEng   =     -1400.4689 KinEng   =       225.1228 Temp     =       210.3734 
PotEng   =     -1625.5918 E_bond   =       109.4368 E_angle  =        72.9262 
E_dihed  =        39.4387 E_impro  =         1.9641 E_vdwl   =      -974.0998 
E_coul   =      -875.2578 E_long   =         0.0000 Press    =         2.3240 
---------------- Step     6300 ----- CPU =      1.1444 (sec) ----------------
TotEng   =     -1435.4961 KinEng   =       189.5545 Temp     =       177.1354 
PotEng   =     -1625.0506 E_bond   =       106.1841 E_angle  =        73.1378 
E_dihed  =        31.4459 E_impro  =         2.9110 E_vdwl   =      -972.8303 
E_coul   =      -865.8991 E_long   =         0.0000 Press    =         1.3057 
---------------- Step     6350 ----- CPU =      1.1525 (sec) ----------------
TotEng   =     -1412.9152 KinEng   =       207.5898 Temp     =       193.9890 
PotEng   =     -1620.5050 E_bond   =       108.3543 E_angle  =        71.6448 
E_dihed  =        29.6907 E_impro  =         3.9212 E_vdwl   =      -975.5968 
E_coul   =      -858.5193 E_long   =         0.0000 Press    =         1.3414 
---------------- Step     6400 ----- CPU =      1.1625 (sec) ----------------
TotEng   =     -1432.1236 KinEng   =       216.0247 Temp     =       201.8713 
PotEng   =     -1648.1483 E_bond   =       103.6558 E_angle  =        71.5858 
E_dihed  =        30.5035 E_impro  =         2.2442 E_vdwl   =      -992.6211 
E_coul   =      -863.5165 E_long   =         0.0000 Press    =         0.2702 
---------------- Step     6450 ----- CPU =      1.1715 (sec) ----------------
TotEng   =     -1433.1461 KinEng   =       218.4767 Temp     =       204.1627 
PotEng   =     -1651.6228 E_bond   =        91.1353 E_angle  =        74.9934 
E_dihed  =        32.2879 E_impro  =         2.7442 E_vdwl   =      -995.7210 
E_coul   =      -857.0627 E_long   =         0.0000 Press    =        -0.9555 
---------------- Step     6500 ----- CPU =      1.1815 (sec) ----------------
TotEng   =     -1438.3117 KinEng   =       208.4821 Temp     =       194.8229 
PotEng   =     -1646.7938 E_bond   =       100.9495 E_angle  =        71.0184 
E_dihed  =        32.2953 E_impro  =         3.0142 E_vdwl   =      -988.3664 
E_coul   =      -865.7048 E_long   =         0.0000 Press    =        -0.4539 
---------------- Step     6550 ----- CPU =      1.1905 (sec) ----------------
TotEng   =     -1439.1972 KinEng   =       195.7950 Temp     =       182.9670 
PotEng   =     -1634.9923 E_bond   =       104.7765 E_angle  =        72.2579 
E_dihed  =        32.1096 E_impro  =         4.1950 E_vdwl   =      -984.1306 
E_coul   =      -864.2007 E_long   =         0.0000 Press    =        -0.5130 
---------------- Step     6600 ----- CPU =      1.1995 (sec) ----------------
TotEng   =     -1443.0664 KinEng   =       202.6586 Temp     =       189.3810 
PotEng   =     -1645.7251 E_bond   =       107.9522 E_angle  =        69.5925 
E_dihed  =        31.4930 E_impro  =         3.5358 E_vdwl   =      -984.2811 
E_coul   =      -874.0174 E_long   =         0.0000 Press    =        -0.7120 
---------------- Step     6650 ----- CPU =      1.2085 (sec) ----------------
TotEng   =     -1425.7020 KinEng   =       216.1430 Temp     =       201.9818 
PotEng   =     -1641.8450 E_bond   =       118.4446 E_angle  =        71.2940 
E_dihed  =        30.3137 E_impro  =         3.1647 E_vdwl   =      -995.5986 
E_coul   =      -869.4634 E_long   =         0.0000 Press    =        -1.6232 
---------------- Step     6700 ----- CPU =      1.2175 (sec) ----------------
TotEng   =     -1430.5553 KinEng   =       214.2797 Temp     =       200.2407 
PotEng   =     -1644.8350 E_bond   =       111.7869 E_angle  =        70.9413 
E_dihed  =        29.8186 E_impro  =         2.8102 E_vdwl   =      -996.8976 
E_coul   =      -863.2943 E_long   =         0.0000 Press    =        -1.1301 
---------------- Step     6750 ----- CPU =      1.2265 (sec) ----------------
TotEng   =     -1435.5117 KinEng   =       201.3346 Temp     =       188.1437 
PotEng   =     -1636.8463 E_bond   =       105.2853 E_angle  =        72.8615 
E_dihed  =        35.8988 E_impro  =         3.0655 E_vdwl   =      -991.9991 
E_coul   =      -861.9582 E_long   =         0.0000 Press    =        -0.6546 
---------------- Step     6800 ----- CPU =      1.2365 (sec) ----------------
TotEng   =     -1420.4099 KinEng   =       210.5778 Temp     =       196.7813 
PotEng   =     -1630.9876 E_bond   =       107.8336 E_angle  =        76.4445 
E_dihed  =        32.2153 E_impro  =         2.7481 E_vdwl   =      -991.8272 
E_coul   =      -858.4019 E_long   =         0.0000 Press    =        -0.3052 
---------------- Step     6850 ----- CPU =      1.2445 (sec) ----------------
TotEng   =     -1435.5650 KinEng   =       203.6984 Temp     =       190.3527 
PotEng   =     -1639.2634 E_bond   =       111.1053 E_angle  =        72.3088 
E_dihed  =        35.2908 E_impro  =         2.4323 E_vdwl   =     -1005.4791 
E_coul   =      -854.9215 E_long   =         0.0000 Press    =        -1.3158 
---------------- Step     6900 ----- CPU =      1.2535 (sec) ----------------
TotEng   =     -1436.5591 KinEng   =       194.6897 Temp     =       181.9341 
PotEng   =     -1631.2487 E_bond   =       111.6556 E_angle  =        75.1520 
E_dihed  =        33.9650 E_impro  =         2.4846 E_vdwl   =     -1000.1089 
E_coul   =      -854.3970 E_long   =         0.0000 Press    =        -2.0668 
---------------- Step     6950 ----- CPU =      1.2625 (sec) ----------------
TotEng   =     -1431.3463 KinEng   =       204.8766 Temp     =       191.4536 
PotEng   =     -1636.2229 E_bond   =       105.0123 E_angle  =        78.4330 
E_dihed  =        34.0255 E_impro  =         2.5648 E_vdwl   =     -1004.7231 
E_coul   =      -851.5352 E_long   =         0.0000 Press    =        -1.9197 
---------------- Step     7000 ----- CPU =      1.2715 (sec) ----------------
TotEng   =     -1403.5073 KinEng   =       212.9754 Temp     =       199.0218 
PotEng   =     -1616.4826 E_bond   =       110.7725 E_angle  =        76.0390 
E_dihed  =        36.2906 E_impro  =         2.7294 E_vdwl   =      -992.3569 
E_coul   =      -849.9571 E_long   =         0.0000 Press    =        -1.1318 
---------------- Step     7050 ----- CPU =      1.2805 (sec) ----------------
TotEng   =     -1413.6114 KinEng   =       214.0238 Temp     =       200.0016 
PotEng   =     -1627.6352 E_bond   =       109.6179 E_angle  =        75.2173 
E_dihed  =        30.3487 E_impro  =         2.1157 E_vdwl   =      -990.9197 
E_coul   =      -854.0150 E_long   =         0.0000 Press    =        -1.3696 
---------------- Step     7100 ----- CPU =      1.2895 (sec) ----------------
TotEng   =     -1431.2654 KinEng   =       188.9969 Temp     =       176.6143 
PotEng   =     -1620.2622 E_bond   =       121.2947 E_angle  =        73.9216 
E_dihed  =        30.0096 E_impro  =         1.7308 E_vdwl   =      -988.0781 
E_coul   =      -859.1409 E_long   =         0.0000 Press    =        -1.8085 
---------------- Step     7150 ----- CPU =      1.2985 (sec) ----------------
TotEng   =     -1436.8531 KinEng   =       207.6825 Temp     =       194.0757 
PotEng   =     -1644.5357 E_bond   =       115.8657 E_angle  =        70.9584 
E_dihed  =        25.4938 E_impro  =         1.3129 E_vdwl   =      -990.2811 
E_coul   =      -867.8854 E_long   =         0.0000 Press    =        -1.1233 
---------------- Step     7200 ----- CPU =      1.3072 (sec) ----------------
TotEng   =     -1400.4038 KinEng   =       227.4671 Temp     =       212.5641 
PotEng   =     -1627.8709 E_bond   =       130.7579 E_angle  =        67.5376 
E_dihed  =        25.7042 E_impro  =         1.5194 E_vdwl   =      -983.4321 
E_coul   =      -869.9579 E_long   =         0.0000 Press    =        -0.7754 
---------------- Step     7250 ----- CPU =      1.3161 (sec) ----------------
TotEng   =     -1442.4854 KinEng   =       187.1180 Temp     =       174.8586 
PotEng   =     -1629.6034 E_bond   =       134.4156 E_angle  =        68.5031 
E_dihed  =        23.3498 E_impro  =         1.1699 E_vdwl   =      -997.4377 
E_coul   =      -859.6042 E_long   =         0.0000 Press    =        -2.2450 
---------------- Step     7300 ----- CPU =      1.3251 (sec) ----------------
TotEng   =     -1434.5479 KinEng   =       204.2241 Temp     =       190.8439 
PotEng   =     -1638.7720 E_bond   =       121.9625 E_angle  =        70.0168 
E_dihed  =        28.4237 E_impro  =         1.9811 E_vdwl   =      -998.0797 
E_coul   =      -863.0764 E_long   =         0.0000 Press    =        -2.0406 
---------------- Step     7350 ----- CPU =      1.3347 (sec) ----------------
TotEng   =     -1421.1131 KinEng   =       214.7122 Temp     =       200.6448 
PotEng   =     -1635.8253 E_bond   =       131.8036 E_angle  =        71.7104 
E_dihed  =        23.0041 E_impro  =         3.0266 E_vdwl   =      -996.1931 
E_coul   =      -869.1768 E_long   =         0.0000 Press    =        -1.8175 
---------------- Step     7400 ----- CPU =      1.3428 (sec) ----------------
TotEng   =     -1445.2803 KinEng   =       197.0555 Temp     =       184.1450 
PotEng   =     -1642.3358 E_bond   =       130.0452 E_angle  =        69.9057 
E_dihed  =        25.6141 E_impro  =         1.9652 E_vdwl   =     -1000.3637 
E_coul   =      -869.5023 E_long   =         0.0000 Press    =        -2.8354 
---------------- Step     7450 ----- CPU =      1.3517 (sec) ----------------
TotEng   =     -1459.2543 KinEng   =       193.3419 Temp     =       180.6746 
PotEng   =     -1652.5962 E_bond   =       124.7463 E_angle  =        72.5395 
E_dihed  =        29.5904 E_impro  =         2.1623 E_vdwl   =     -1012.1782 
E_coul   =      -869.4566 E_long   =         0.0000 Press    =        -3.9904 
---------------- Step     7500 ----- CPU =      1.3619 (sec) ----------------
TotEng   =     -1442.5563 KinEng   =       204.1235 Temp     =       190.7499 
PotEng   =     -1646.6799 E_bond   =       120.3057 E_angle  =        74.4752 
E_dihed  =        27.0262 E_impro  =         1.8719 E_vdwl   =      -992.8837 
E_coul   =      -877.4751 E_long   =         0.0000 Press    =        -2.4286 
---------------- Step     7550 ----- CPU =      1.3699 (sec) ----------------
TotEng   =     -1451.3745 KinEng   =       206.4917 Temp     =       192.9629 
PotEng   =     -1657.8662 E_bond   =       113.4407 E_angle  =        67.8493 
E_dihed  =        35.7261 E_impro  =         1.8641 E_vdwl   =     -1017.5550 
E_coul   =      -859.1914 E_long   =         0.0000 Press    =        -3.3091 
---------------- Step     7600 ----- CPU =      1.3789 (sec) ----------------
TotEng   =     -1440.9266 KinEng   =       211.6916 Temp     =       197.8222 
PotEng   =     -1652.6183 E_bond   =       114.9114 E_angle  =        72.7621 
E_dihed  =        34.7692 E_impro  =         2.6013 E_vdwl   =     -1012.3042 
E_coul   =      -865.3580 E_long   =         0.0000 Press    =        -2.6863 
---------------- Step     7650 ----- CPU =      1.3880 (sec) ----------------
TotEng   =     -1437.8172 KinEng   =       200.4702 Temp     =       187.3359 
PotEng   =     -1638.2873 E_bond   =       124.8445 E_angle  =        71.1876 
E_dihed  =        37.0602 E_impro  =         3.0557 E_vdwl   =     -1002.1340 
E_coul   =      -872.3013 E_long   =         0.0000 Press    =        -2.1707 
---------------- Step     7700 ----- CPU =      1.3966 (sec) ----------------
TotEng   =     -1439.6313 KinEng   =       207.3340 Temp     =       193.7501 
PotEng   =     -1646.9653 E_bond   =       119.4299 E_angle  =        71.3910 
E_dihed  =        31.3291 E_impro  =         2.2898 E_vdwl   =     -1001.4012 
E_coul   =      -870.0038 E_long   =         0.0000 Press    =        -2.2232 
---------------- Step     7750 ----- CPU =      1.4056 (sec) ----------------
TotEng   =     -1433.8572 KinEng   =       224.8134 Temp     =       210.0843 
PotEng   =     -1658.6707 E_bond   =       110.4683 E_angle  =        69.6819 
E_dihed  =        33.5591 E_impro  =         2.8888 E_vdwl   =     -1005.7865 
E_coul   =      -869.4822 E_long   =         0.0000 Press    =        -1.5292 
---------------- Step     7800 ----- CPU =      1.4146 (sec) ----------------
TotEng   =     -1438.0952 KinEng   =       217.1899 Temp     =       202.9602 
PotEng   =     -1655.2851 E_bond   =       110.6501 E_angle  =        69.0872 
E_dihed  =        29.8208 E_impro  =         1.7250 E_vdwl   =     -1005.5519 
E_coul   =      -861.0163 E_long   =         0.0000 Press    =        -1.5002 
---------------- Step     7850 ----- CPU =      1.4236 (sec) ----------------
TotEng   =     -1422.3608 KinEng   =       224.2545 Temp     =       209.5619 
PotEng   =     -1646.6153 E_bond   =       118.1163 E_angle  =        68.2121 
E_dihed  =        24.5712 E_impro  =         1.9638 E_vdwl   =      -992.3499 
E_coul   =      -867.1287 E_long   =         0.0000 Press    =         0.4127 
---------------- Step     7900 ----- CPU =      1.4322 (sec) ----------------
TotEng   =     -1424.0804 KinEng   =       217.5954 Temp     =       203.3391 
PotEng   =     -1641.6758 E_bond   =       123.2898 E_angle  =        68.3902 
E_dihed  =        29.3794 E_impro  =         0.9260 E_vdwl   =      -999.3242 
E_coul   =      -864.3370 E_long   =         0.0000 Press    =        -0.0989 
---------------- Step     7950 ----- CPU =      1.4412 (sec) ----------------
TotEng   =     -1445.2107 KinEng   =       202.6724 Temp     =       189.3939 
PotEng   =     -1647.8831 E_bond   =       113.8215 E_angle  =        67.0234 
E_dihed  =        26.9202 E_impro  =         1.2392 E_vdwl   =      -980.6648 
E_coul   =      -876.2227 E_long   =         0.0000 Press    =         0.4964 
---------------- Step     8000 ----- CPU =      1.4502 (sec) ----------------
TotEng   =     -1433.7911 KinEng   =       222.1982 Temp     =       207.6403 
PotEng   =     -1655.9892 E_bond   =       105.9594 E_angle  =        67.2372 
E_dihed  =        29.5001 E_impro  =         1.1762 E_vdwl   =      -981.7863 
E_coul   =      -878.0759 E_long   =         0.0000 Press    =         0.3410 
---------------- Step     8050 ----- CPU =      1.4593 (sec) ----------------
TotEng   =     -1428.6894 KinEng   =       226.5973 Temp     =       211.7512 
PotEng   =     -1655.2867 E_bond   =       106.7641 E_angle  =        67.1208 
E_dihed  =        32.7408 E_impro  =         1.7288 E_vdwl   =      -983.4540 
E_coul   =      -880.1871 E_long   =         0.0000 Press    =         0.0882 
---------------- Step     8100 ----- CPU =      1.4683 (sec) ----------------
TotEng   =     -1424.2086 KinEng   =       216.2418 Temp     =       202.0742 
PotEng   =     -1640.4504 E_bond   =       113.5258 E_angle  =        69.3172 
E_dihed  =        33.1426 E_impro  =         1.1936 E_vdwl   =      -972.3860 
E_coul   =      -885.2437 E_long   =         0.0000 Press    =         1.3778 
---------------- Step     8150 ----- CPU =      1.4773 (sec) ----------------
TotEng   =     -1440.8970 KinEng   =       200.4971 Temp     =       187.3611 
PotEng   =     -1641.3941 E_bond   =       103.5457 E_angle  =        71.8044 
E_dihed  =        34.4153 E_impro  =         1.2634 E_vdwl   =      -970.3951 
E_coul   =      -882.0277 E_long   =         0.0000 Press    =         2.2076 
---------------- Step     8200 ----- CPU =      1.4863 (sec) ----------------
TotEng   =     -1429.0191 KinEng   =       211.3139 Temp     =       197.4692 
PotEng   =     -1640.3330 E_bond   =       112.0200 E_angle  =        69.4395 
E_dihed  =        33.9437 E_impro  =         1.7413 E_vdwl   =      -964.5761 
E_coul   =      -892.9013 E_long   =         0.0000 Press    =         2.3604 
---------------- Step     8250 ----- CPU =      1.4961 (sec) ----------------
TotEng   =     -1423.1216 KinEng   =       212.2017 Temp     =       198.2988 
PotEng   =     -1635.3234 E_bond   =       121.9104 E_angle  =        71.4765 
E_dihed  =        31.9712 E_impro  =         2.9109 E_vdwl   =      -979.3964 
E_coul   =      -884.1960 E_long   =         0.0000 Press    =         1.0488 
---------------- Step     8300 ----- CPU =      1.5061 (sec) ----------------
TotEng   =     -1437.8267 KinEng   =       200.5446 Temp     =       187.4054 
PotEng   =     -1638.3712 E_bond   =       121.4250 E_angle  =        75.4529 
E_dihed  =        36.0852 E_impro  =         1.6967 E_vdwl   =      -993.5384 
E_coul   =      -879.4927 E_long   =         0.0000 Press    =        -0.4003 
---------------- Step     8350 ----- CPU =      1.5146 (sec) ----------------
TotEng   =     -1460.5793 KinEng   =       191.4721 Temp     =       178.9274 
PotEng   =     -1652.0514 E_bond   =       117.2769 E_angle  =        76.5977 
E_dihed  =        29.3569 E_impro  =         1.8472 E_vdwl   =     -1002.3821 
E_coul   =      -874.7480 E_long   =         0.0000 Press    =        -0.6565 
---------------- Step     8400 ----- CPU =      1.5246 (sec) ----------------
TotEng   =     -1440.1795 KinEng   =       216.3699 Temp     =       202.1939 
PotEng   =     -1656.5494 E_bond   =       108.9645 E_angle  =        71.1243 
E_dihed  =        31.9775 E_impro  =         1.9624 E_vdwl   =     -1002.9185 
E_coul   =      -867.6596 E_long   =         0.0000 Press    =        -1.0000 
---------------- Step     8450 ----- CPU =      1.5338 (sec) ----------------
TotEng   =     -1465.0034 KinEng   =       194.8926 Temp     =       182.1238 
PotEng   =     -1659.8960 E_bond   =       107.8808 E_angle  =        78.9225 
E_dihed  =        26.7709 E_impro  =         1.9495 E_vdwl   =     -1001.6660 
E_coul   =      -873.7537 E_long   =         0.0000 Press    =        -0.7700 
---------------- Step     8500 ----- CPU =      1.5428 (sec) ----------------
TotEng   =     -1409.3377 KinEng   =       227.8248 Temp     =       212.8984 
PotEng   =     -1637.1625 E_bond   =       116.1962 E_angle  =        77.8546 
E_dihed  =        31.6878 E_impro  =         1.4384 E_vdwl   =      -980.8337 
E_coul   =      -883.5058 E_long   =         0.0000 Press    =         0.3095 
---------------- Step     8550 ----- CPU =      1.5520 (sec) ----------------
TotEng   =     -1414.1786 KinEng   =       243.7925 Temp     =       227.8199 
PotEng   =     -1657.9711 E_bond   =       110.1653 E_angle  =        74.1868 
E_dihed  =        29.0051 E_impro  =         1.8919 E_vdwl   =      -993.7005 
E_coul   =      -879.5198 E_long   =         0.0000 Press    =        -0.3443 
---------------- Step     8600 ----- CPU =      1.5612 (sec) ----------------
TotEng   =     -1432.4675 KinEng   =       215.1124 Temp     =       201.0188 
PotEng   =     -1647.5799 E_bond   =       117.1342 E_angle  =        72.1535 
E_dihed  =        28.8762 E_impro  =         2.1962 E_vdwl   =      -998.7588 
E_coul   =      -869.1812 E_long   =         0.0000 Press    =        -0.9501 
---------------- Step     8650 ----- CPU =      1.5703 (sec) ----------------
TotEng   =     -1451.9444 KinEng   =       201.8738 Temp     =       188.6476 
PotEng   =     -1653.8183 E_bond   =       110.3468 E_angle  =        71.4957 
E_dihed  =        28.5235 E_impro  =         1.6620 E_vdwl   =     -1000.9518 
E_coul   =      -864.8945 E_long   =         0.0000 Press    =        -1.2726 
---------------- Step     8700 ----- CPU =      1.5786 (sec) ----------------
TotEng   =     -1449.9842 KinEng   =       204.1318 Temp     =       190.7576 
PotEng   =     -1654.1160 E_bond   =       104.0706 E_angle  =        75.8595 
E_dihed  =        26.6787 E_impro  =         3.4464 E_vdwl   =     -1000.8115 
E_coul   =      -863.3597 E_long   =         0.0000 Press    =        -0.3200 
---------------- Step     8750 ----- CPU =      1.5891 (sec) ----------------
TotEng   =     -1464.3138 KinEng   =       182.2220 Temp     =       170.2833 
PotEng   =     -1646.5358 E_bond   =       110.9511 E_angle  =        75.0094 
E_dihed  =        23.0422 E_impro  =         4.2466 E_vdwl   =      -989.2707 
E_coul   =      -870.5144 E_long   =         0.0000 Press    =        -0.1295 
---------------- Step     8800 ----- CPU =      1.5991 (sec) ----------------
TotEng   =     -1430.9415 KinEng   =       214.3740 Temp     =       200.3288 
PotEng   =     -1645.3154 E_bond   =       105.5277 E_angle  =        77.5314 
E_dihed  =        25.8703 E_impro  =         3.4146 E_vdwl   =      -988.2616 
E_coul   =      -869.3978 E_long   =         0.0000 Press    =         0.6496 
---------------- Step     8850 ----- CPU =      1.6081 (sec) ----------------
TotEng   =     -1439.8193 KinEng   =       210.3122 Temp     =       196.5331 
PotEng   =     -1650.1315 E_bond   =       111.5032 E_angle  =        73.6504 
E_dihed  =        26.6881 E_impro  =         2.4572 E_vdwl   =      -992.7776 
E_coul   =      -871.6527 E_long   =         0.0000 Press    =        -0.1045 
---------------- Step     8900 ----- CPU =      1.6171 (sec) ----------------
TotEng   =     -1433.6384 KinEng   =       211.1892 Temp     =       197.3526 
PotEng   =     -1644.8276 E_bond   =       123.3361 E_angle  =        69.2680 
E_dihed  =        31.4457 E_impro  =         2.8791 E_vdwl   =      -993.0974 
E_coul   =      -878.6593 E_long   =         0.0000 Press    =         0.1634 
---------------- Step     8950 ----- CPU =      1.6259 (sec) ----------------
TotEng   =     -1443.3764 KinEng   =       206.6547 Temp     =       193.1153 
PotEng   =     -1650.0311 E_bond   =       110.9481 E_angle  =        69.1320 
E_dihed  =        33.4467 E_impro  =         2.6636 E_vdwl   =     -1002.6304 
E_coul   =      -863.5910 E_long   =         0.0000 Press    =        -1.7514 
---------------- Step     9000 ----- CPU =      1.6369 (sec) ----------------
TotEng   =     -1454.2897 KinEng   =       196.5692 Temp     =       183.6905 
PotEng   =     -1650.8589 E_bond   =       116.9335 E_angle  =        70.3823 
E_dihed  =        29.4261 E_impro  =         2.8260 E_vdwl   =     -1000.2213 
E_coul   =      -870.2055 E_long   =         0.0000 Press    =        -1.6575 
---------------- Step     9050 ----- CPU =      1.6459 (sec) ----------------
TotEng   =     -1443.5120 KinEng   =       209.7281 Temp     =       195.9873 
PotEng   =     -1653.2401 E_bond   =       115.0271 E_angle  =        68.5846 
E_dihed  =        30.7720 E_impro  =         2.8463 E_vdwl   =      -984.9721 
E_coul   =      -885.4980 E_long   =         0.0000 Press    =        -0.5766 
---------------- Step     9100 ----- CPU =      1.6545 (sec) ----------------
TotEng   =     -1440.6451 KinEng   =       202.0836 Temp     =       188.8436 
PotEng   =     -1642.7287 E_bond   =       119.6055 E_angle  =        68.1361 
E_dihed  =        33.2119 E_impro  =         3.9985 E_vdwl   =      -994.9586 
E_coul   =      -872.7221 E_long   =         0.0000 Press    =        -1.3876 
---------------- Step     9150 ----- CPU =      1.6634 (sec) ----------------
TotEng   =     -1455.2271 KinEng   =       200.5371 Temp     =       187.3985 
PotEng   =     -1655.7642 E_bond   =       105.7384 E_angle  =        72.1869 
E_dihed  =        29.9724 E_impro  =         2.6715 E_vdwl   =      -987.2452 
E_coul   =      -879.0882 E_long   =         0.0000 Press    =         0.1835 
---------------- Step     9200 ----- CPU =      1.6724 (sec) ----------------
TotEng   =     -1431.1923 KinEng   =       209.3377 Temp     =       195.6225 
PotEng   =     -1640.5300 E_bond   =       105.6955 E_angle  =        74.7177 
E_dihed  =        30.9187 E_impro  =         3.2837 E_vdwl   =      -977.7297 
E_coul   =      -877.4158 E_long   =         0.0000 Press    =        -0.3043 
---------------- Step     9250 ----- CPU =      1.6814 (sec) ----------------
TotEng   =     -1428.8821 KinEng   =       199.5124 Temp     =       186.4409 
PotEng   =     -1628.3945 E_bond   =       115.7057 E_angle  =        76.9145 
E_dihed  =        27.0689 E_impro  =         4.7063 E_vdwl   =      -986.1839 
E_coul   =      -866.6060 E_long   =         0.0000 Press    =        -0.7881 
---------------- Step     9300 ----- CPU =      1.6904 (sec) ----------------
TotEng   =     -1434.8187 KinEng   =       210.7456 Temp     =       196.9381 
PotEng   =     -1645.5643 E_bond   =       105.0647 E_angle  =        73.3177 
E_dihed  =        27.0340 E_impro  =         4.0264 E_vdwl   =      -984.0964 
E_coul   =      -870.9107 E_long   =         0.0000 Press    =        -0.2896 
---------------- Step     9350 ----- CPU =      1.6994 (sec) ----------------
TotEng   =     -1427.1792 KinEng   =       220.1552 Temp     =       205.7312 
PotEng   =     -1647.3344 E_bond   =        97.8448 E_angle  =        70.6417 
E_dihed  =        33.2159 E_impro  =         3.6744 E_vdwl   =      -977.1201 
E_coul   =      -875.5911 E_long   =         0.0000 Press    =         1.5863 
---------------- Step     9400 ----- CPU =      1.7084 (sec) ----------------
TotEng   =     -1460.2342 KinEng   =       200.7579 Temp     =       187.6048 
PotEng   =     -1660.9921 E_bond   =       110.4092 E_angle  =        73.1042 
E_dihed  =        28.6917 E_impro  =         3.4839 E_vdwl   =      -994.1405 
E_coul   =      -882.5405 E_long   =         0.0000 Press    =         0.3414 
---------------- Step     9450 ----- CPU =      1.7184 (sec) ----------------
TotEng   =     -1446.0336 KinEng   =       210.1376 Temp     =       196.3699 
PotEng   =     -1656.1712 E_bond   =       119.8222 E_angle  =        73.4776 
E_dihed  =        27.2761 E_impro  =         2.2694 E_vdwl   =     -1004.2405 
E_coul   =      -874.7761 E_long   =         0.0000 Press    =        -0.4807 
---------------- Step     9500 ----- CPU =      1.7274 (sec) ----------------
[...]
PotEng   =     -1682.2986 E_bond   =       110.3995 E_angle  =        66.8860 
E_dihed  =        30.0306 E_impro  =         2.7258 E_vdwl   =     -1008.0364 
E_coul   =      -884.3041 E_long   =         0.0000 Press    =        -0.8482 
---------------- Step    77800 ----- CPU =     14.3307 (sec) ----------------
TotEng   =     -1476.0942 KinEng   =       208.6332 Temp     =       194.9641 
PotEng   =     -1684.7274 E_bond   =       113.6234 E_angle  =        64.9880 
E_dihed  =        25.4500 E_impro  =         3.1883 E_vdwl   =     -1017.5049 
E_coul   =      -874.4723 E_long   =         0.0000 Press    =        -0.8227 
---------------- Step    77850 ----- CPU =     14.3394 (sec) ----------------
TotEng   =     -1463.5786 KinEng   =       204.2888 Temp     =       190.9043 
PotEng   =     -1667.8674 E_bond   =       114.0604 E_angle  =        63.9787 
E_dihed  =        28.6416 E_impro  =         2.6881 E_vdwl   =     -1008.5288 
E_coul   =      -868.7074 E_long   =         0.0000 Press    =        -1.2409 
---------------- Step    77900 ----- CPU =     14.3483 (sec) ----------------
TotEng   =     -1467.5960 KinEng   =       213.8881 Temp     =       199.8747 
PotEng   =     -1681.4841 E_bond   =       110.5595 E_angle  =        63.1932 
E_dihed  =        22.9019 E_impro  =         3.4522 E_vdwl   =     -1012.8298 
E_coul   =      -868.7611 E_long   =         0.0000 Press    =        -2.0532 
---------------- Step    77950 ----- CPU =     14.3573 (sec) ----------------
TotEng   =     -1476.7408 KinEng   =       214.1628 Temp     =       200.1314 
PotEng   =     -1690.9036 E_bond   =       110.5593 E_angle  =        64.5163 
E_dihed  =        27.9503 E_impro  =         3.6385 E_vdwl   =     -1024.4880 
E_coul   =      -873.0800 E_long   =         0.0000 Press    =        -3.6194 
---------------- Step    78000 ----- CPU =     14.3669 (sec) ----------------
TotEng   =     -1494.4183 KinEng   =       208.7947 Temp     =       195.1150 
PotEng   =     -1703.2130 E_bond   =       100.2067 E_angle  =        64.4624 
E_dihed  =        24.1672 E_impro  =         3.8376 E_vdwl   =     -1018.5670 
E_coul   =      -877.3199 E_long   =         0.0000 Press    =        -2.0129 
---------------- Step    78050 ----- CPU =     14.3755 (sec) ----------------
TotEng   =     -1498.4137 KinEng   =       203.8120 Temp     =       190.4588 
PotEng   =     -1702.2257 E_bond   =        96.8860 E_angle  =        64.1975 
E_dihed  =        24.6131 E_impro  =         3.8847 E_vdwl   =     -1019.2975 
E_coul   =      -872.5095 E_long   =         0.0000 Press    =        -1.7007 
---------------- Step    78100 ----- CPU =     14.3845 (sec) ----------------
TotEng   =     -1474.5914 KinEng   =       223.8120 Temp     =       209.1484 
PotEng   =     -1698.4034 E_bond   =       107.9955 E_angle  =        63.1934 
E_dihed  =        22.7881 E_impro  =         3.5748 E_vdwl   =     -1015.2427 
E_coul   =      -880.7126 E_long   =         0.0000 Press    =        -1.5758 
---------------- Step    78150 ----- CPU =     14.3935 (sec) ----------------
TotEng   =     -1494.8350 KinEng   =       201.7633 Temp     =       188.5443 
PotEng   =     -1696.5982 E_bond   =       105.4520 E_angle  =        60.4990 
E_dihed  =        24.2125 E_impro  =         3.5229 E_vdwl   =     -1003.1117 
E_coul   =      -887.1730 E_long   =         0.0000 Press    =        -0.8483 
---------------- Step    78200 ----- CPU =     14.4025 (sec) ----------------
TotEng   =     -1509.5361 KinEng   =       188.6133 Temp     =       176.2558 
PotEng   =     -1698.1494 E_bond   =        92.1943 E_angle  =        64.6232 
E_dihed  =        18.5092 E_impro  =         5.1200 E_vdwl   =      -986.6346 
E_coul   =      -891.9614 E_long   =         0.0000 Press    =        -0.1656 
---------------- Step    78250 ----- CPU =     14.4115 (sec) ----------------
TotEng   =     -1493.2021 KinEng   =       193.1475 Temp     =       180.4930 
PotEng   =     -1686.3496 E_bond   =       100.8727 E_angle  =        62.1161 
E_dihed  =        21.1415 E_impro  =         4.0878 E_vdwl   =      -986.7409 
E_coul   =      -887.8270 E_long   =         0.0000 Press    =         0.5245 
---------------- Step    78300 ----- CPU =     14.4215 (sec) ----------------
TotEng   =     -1504.0970 KinEng   =       186.5432 Temp     =       174.3214 
PotEng   =     -1690.6402 E_bond   =       101.6848 E_angle  =        65.3012 
E_dihed  =        18.8107 E_impro  =         3.7702 E_vdwl   =      -995.6354 
E_coul   =      -884.5717 E_long   =         0.0000 Press    =         0.0481 
---------------- Step    78350 ----- CPU =     14.4305 (sec) ----------------
TotEng   =     -1462.1345 KinEng   =       227.9693 Temp     =       213.0333 
PotEng   =     -1690.1038 E_bond   =       110.4793 E_angle  =        66.3009 
E_dihed  =        18.1190 E_impro  =         5.1397 E_vdwl   =     -1005.4471 
E_coul   =      -884.6956 E_long   =         0.0000 Press    =        -0.7318 
---------------- Step    78400 ----- CPU =     14.4385 (sec) ----------------
TotEng   =     -1485.9780 KinEng   =       213.9018 Temp     =       199.8875 
PotEng   =     -1699.8798 E_bond   =       105.3659 E_angle  =        61.7901 
E_dihed  =        18.7713 E_impro  =         6.5542 E_vdwl   =     -1005.9204 
E_coul   =      -886.4409 E_long   =         0.0000 Press    =        -0.1899 
---------------- Step    78450 ----- CPU =     14.4485 (sec) ----------------
TotEng   =     -1482.1877 KinEng   =       216.9526 Temp     =       202.7384 
PotEng   =     -1699.1403 E_bond   =       103.2511 E_angle  =        62.4080 
E_dihed  =        17.6304 E_impro  =         5.6899 E_vdwl   =     -1010.0029 
E_coul   =      -878.1168 E_long   =         0.0000 Press    =        -0.4474 
---------------- Step    78500 ----- CPU =     14.4585 (sec) ----------------
TotEng   =     -1494.8001 KinEng   =       209.9238 Temp     =       196.1701 
PotEng   =     -1704.7239 E_bond   =       108.4331 E_angle  =        62.8275 
E_dihed  =        18.9124 E_impro  =         4.4527 E_vdwl   =     -1018.9008 
E_coul   =      -880.4488 E_long   =         0.0000 Press    =        -1.0512 
---------------- Step    78550 ----- CPU =     14.4665 (sec) ----------------
TotEng   =     -1492.3912 KinEng   =       201.1324 Temp     =       187.9547 
PotEng   =     -1693.5235 E_bond   =       120.3714 E_angle  =        60.7050 
E_dihed  =        19.9288 E_impro  =         4.3941 E_vdwl   =     -1010.2925 
E_coul   =      -888.6303 E_long   =         0.0000 Press    =        -0.2620 
---------------- Step    78600 ----- CPU =     14.4755 (sec) ----------------
TotEng   =     -1492.5851 KinEng   =       212.2835 Temp     =       198.3753 
PotEng   =     -1704.8686 E_bond   =       102.8351 E_angle  =        63.8160 
E_dihed  =        18.5459 E_impro  =         5.2845 E_vdwl   =     -1019.6788 
E_coul   =      -875.6714 E_long   =         0.0000 Press    =        -0.3758 
---------------- Step    78650 ----- CPU =     14.4845 (sec) ----------------
TotEng   =     -1505.1647 KinEng   =       204.0805 Temp     =       190.7097 
PotEng   =     -1709.2452 E_bond   =       101.5593 E_angle  =        61.7752 
E_dihed  =        20.0525 E_impro  =         4.1466 E_vdwl   =     -1020.9872 
E_coul   =      -875.7917 E_long   =         0.0000 Press    =        -0.3454 
---------------- Step    78700 ----- CPU =     14.4945 (sec) ----------------
TotEng   =     -1486.0130 KinEng   =       208.1290 Temp     =       194.4929 
PotEng   =     -1694.1420 E_bond   =       116.5681 E_angle  =        62.0404 
E_dihed  =        18.7373 E_impro  =         3.7526 E_vdwl   =     -1008.1366 
E_coul   =      -887.1037 E_long   =         0.0000 Press    =         0.1893 
---------------- Step    78750 ----- CPU =     14.5025 (sec) ----------------
TotEng   =     -1480.3374 KinEng   =       217.1714 Temp     =       202.9429 
PotEng   =     -1697.5088 E_bond   =       113.7122 E_angle  =        61.0435 
E_dihed  =        17.3335 E_impro  =         5.1007 E_vdwl   =     -1014.0611 
E_coul   =      -880.6375 E_long   =         0.0000 Press    =        -0.2794 
---------------- Step    78800 ----- CPU =     14.5115 (sec) ----------------
TotEng   =     -1477.2452 KinEng   =       210.2283 Temp     =       196.4547 
PotEng   =     -1687.4735 E_bond   =       116.6453 E_angle  =        59.0631 
E_dihed  =        19.4159 E_impro  =         4.6215 E_vdwl   =     -1009.4569 
E_coul   =      -877.7622 E_long   =         0.0000 Press    =         0.1831 
---------------- Step    78850 ----- CPU =     14.5205 (sec) ----------------
TotEng   =     -1496.3274 KinEng   =       204.5747 Temp     =       191.1715 
PotEng   =     -1700.9021 E_bond   =       115.6866 E_angle  =        60.8453 
E_dihed  =        18.9577 E_impro  =         5.2065 E_vdwl   =     -1024.8471 
E_coul   =      -876.7511 E_long   =         0.0000 Press    =        -1.2096 
---------------- Step    78900 ----- CPU =     14.5305 (sec) ----------------
TotEng   =     -1498.5579 KinEng   =       202.7239 Temp     =       189.4419 
PotEng   =     -1701.2818 E_bond   =       102.6271 E_angle  =        67.9214 
E_dihed  =        13.9924 E_impro  =         4.5693 E_vdwl   =     -1003.5814 
E_coul   =      -886.8106 E_long   =         0.0000 Press    =         0.5523 
---------------- Step    78950 ----- CPU =     14.5395 (sec) ----------------
TotEng   =     -1497.1723 KinEng   =       213.6724 Temp     =       199.6731 
PotEng   =     -1710.8447 E_bond   =       109.0551 E_angle  =        63.1066 
E_dihed  =        19.9435 E_impro  =         3.5046 E_vdwl   =     -1006.5719 
E_coul   =      -899.8826 E_long   =         0.0000 Press    =        -0.2117 
---------------- Step    79000 ----- CPU =     14.5495 (sec) ----------------
TotEng   =     -1498.8264 KinEng   =       214.5387 Temp     =       200.4827 
PotEng   =     -1713.3651 E_bond   =       110.3238 E_angle  =        61.7632 
E_dihed  =        16.7305 E_impro  =         3.0627 E_vdwl   =      -999.8892 
E_coul   =      -905.3562 E_long   =         0.0000 Press    =         0.3212 
---------------- Step    79050 ----- CPU =     14.5595 (sec) ----------------
TotEng   =     -1504.6096 KinEng   =       207.3712 Temp     =       193.7848 
PotEng   =     -1711.9808 E_bond   =       110.3237 E_angle  =        62.9764 
E_dihed  =        16.6674 E_impro  =         2.6140 E_vdwl   =      -992.1389 
E_coul   =      -912.4234 E_long   =         0.0000 Press    =         1.3771 
---------------- Step    79100 ----- CPU =     14.5675 (sec) ----------------
TotEng   =     -1497.6694 KinEng   =       190.7563 Temp     =       178.2585 
PotEng   =     -1688.4257 E_bond   =       113.7647 E_angle  =        62.0424 
E_dihed  =        21.7549 E_impro  =         4.2504 E_vdwl   =      -998.8758 
E_coul   =      -891.3623 E_long   =         0.0000 Press    =         0.6721 
---------------- Step    79150 ----- CPU =     14.5775 (sec) ----------------
TotEng   =     -1487.9216 KinEng   =       213.1569 Temp     =       199.1914 
PotEng   =     -1701.0785 E_bond   =       122.4675 E_angle  =        66.5573 
E_dihed  =        15.8625 E_impro  =         4.3978 E_vdwl   =     -1011.7456 
E_coul   =      -898.6180 E_long   =         0.0000 Press    =        -0.5448 
---------------- Step    79200 ----- CPU =     14.5855 (sec) ----------------
TotEng   =     -1516.4729 KinEng   =       190.3162 Temp     =       177.8472 
PotEng   =     -1706.7892 E_bond   =       115.9805 E_angle  =        62.8328 
E_dihed  =        17.2442 E_impro  =         3.7213 E_vdwl   =     -1017.0335 
E_coul   =      -889.5345 E_long   =         0.0000 Press    =        -0.4087 
---------------- Step    79250 ----- CPU =     14.5945 (sec) ----------------
TotEng   =     -1520.7928 KinEng   =       188.8185 Temp     =       176.4476 
PotEng   =     -1709.6113 E_bond   =       109.8150 E_angle  =        64.2022 
E_dihed  =        16.9325 E_impro  =         3.5720 E_vdwl   =     -1013.0385 
E_coul   =      -891.0946 E_long   =         0.0000 Press    =        -0.7066 
---------------- Step    79300 ----- CPU =     14.6035 (sec) ----------------
TotEng   =     -1495.3865 KinEng   =       201.9293 Temp     =       188.6995 
PotEng   =     -1697.3158 E_bond   =       113.9532 E_angle  =        69.1096 
E_dihed  =        17.5036 E_impro  =         3.8321 E_vdwl   =     -1021.6041 
E_coul   =      -880.1103 E_long   =         0.0000 Press    =        -1.7590 
---------------- Step    79350 ----- CPU =     14.6135 (sec) ----------------
TotEng   =     -1485.2483 KinEng   =       200.0268 Temp     =       186.9216 
PotEng   =     -1685.2751 E_bond   =       119.3476 E_angle  =        70.6391 
E_dihed  =        17.1354 E_impro  =         4.2328 E_vdwl   =     -1017.6686 
E_coul   =      -878.9614 E_long   =         0.0000 Press    =        -1.4124 
---------------- Step    79400 ----- CPU =     14.6225 (sec) ----------------
TotEng   =     -1483.0185 KinEng   =       207.5013 Temp     =       193.9064 
PotEng   =     -1690.5198 E_bond   =       110.2072 E_angle  =        70.3201 
E_dihed  =        21.7596 E_impro  =         5.3104 E_vdwl   =     -1013.2797 
E_coul   =      -884.8375 E_long   =         0.0000 Press    =        -1.2084 
---------------- Step    79450 ----- CPU =     14.6315 (sec) ----------------
TotEng   =     -1492.8949 KinEng   =       202.6074 Temp     =       189.3331 
PotEng   =     -1695.5023 E_bond   =       107.3126 E_angle  =        66.5752 
E_dihed  =        21.7824 E_impro  =         5.4635 E_vdwl   =     -1009.2132 
E_coul   =      -887.4228 E_long   =         0.0000 Press    =        -0.2164 
---------------- Step    79500 ----- CPU =     14.6405 (sec) ----------------
TotEng   =     -1464.7535 KinEng   =       213.1093 Temp     =       199.1470 
PotEng   =     -1677.8629 E_bond   =       102.0710 E_angle  =        70.5508 
E_dihed  =        25.3979 E_impro  =         5.8003 E_vdwl   =      -993.9549 
E_coul   =      -887.7280 E_long   =         0.0000 Press    =        -0.1358 
---------------- Step    79550 ----- CPU =     14.6492 (sec) ----------------
TotEng   =     -1464.4688 KinEng   =       221.2927 Temp     =       206.7942 
PotEng   =     -1685.7616 E_bond   =       110.0461 E_angle  =        68.5361 
E_dihed  =        21.6057 E_impro  =         6.7393 E_vdwl   =     -1012.1079 
E_coul   =      -880.5809 E_long   =         0.0000 Press    =        -1.1643 
---------------- Step    79600 ----- CPU =     14.6582 (sec) ----------------
TotEng   =     -1497.5459 KinEng   =       191.9538 Temp     =       179.3775 
PotEng   =     -1689.4997 E_bond   =       111.5486 E_angle  =        68.3877 
E_dihed  =        21.9146 E_impro  =         6.0436 E_vdwl   =     -1017.0152 
E_coul   =      -880.3789 E_long   =         0.0000 Press    =        -0.9971 
---------------- Step    79650 ----- CPU =     14.6672 (sec) ----------------
TotEng   =     -1501.8766 KinEng   =       197.2285 Temp     =       184.3066 
PotEng   =     -1699.1051 E_bond   =        98.7635 E_angle  =        64.0588 
E_dihed  =        28.0900 E_impro  =         5.7051 E_vdwl   =     -1006.3006 
E_coul   =      -889.4220 E_long   =         0.0000 Press    =        -0.5445 
---------------- Step    79700 ----- CPU =     14.6764 (sec) ----------------
TotEng   =     -1497.3351 KinEng   =       202.3469 Temp     =       189.0897 
PotEng   =     -1699.6820 E_bond   =       103.3022 E_angle  =        65.0284 
E_dihed  =        22.1636 E_impro  =         4.8480 E_vdwl   =     -1012.8448 
E_coul   =      -882.1796 E_long   =         0.0000 Press    =        -0.9297 
---------------- Step    79750 ----- CPU =     14.6863 (sec) ----------------
TotEng   =     -1495.3793 KinEng   =       199.7463 Temp     =       186.6594 
PotEng   =     -1695.1255 E_bond   =        98.6398 E_angle  =        63.0711 
E_dihed  =        22.9465 E_impro  =         5.1135 E_vdwl   =     -1009.5072 
E_coul   =      -875.3893 E_long   =         0.0000 Press    =        -0.3256 
---------------- Step    79800 ----- CPU =     14.6943 (sec) ----------------
TotEng   =     -1473.0361 KinEng   =       216.1581 Temp     =       201.9960 
PotEng   =     -1689.1941 E_bond   =        95.4327 E_angle  =        70.8122 
E_dihed  =        21.6687 E_impro  =         4.5635 E_vdwl   =     -1001.4645 
E_coul   =      -880.2067 E_long   =         0.0000 Press    =        -1.1628 
---------------- Step    79850 ----- CPU =     14.7034 (sec) ----------------
TotEng   =     -1470.9647 KinEng   =       203.8519 Temp     =       190.4961 
PotEng   =     -1674.8167 E_bond   =       108.2551 E_angle  =        76.3531 
E_dihed  =        19.8276 E_impro  =         3.5148 E_vdwl   =     -1001.9489 
E_coul   =      -880.8183 E_long   =         0.0000 Press    =        -0.7560 
---------------- Step    79900 ----- CPU =     14.7124 (sec) ----------------
TotEng   =     -1480.7550 KinEng   =       218.7995 Temp     =       204.4644 
PotEng   =     -1699.5545 E_bond   =       105.2242 E_angle  =        73.4217 
E_dihed  =        20.0722 E_impro  =         3.8518 E_vdwl   =     -1035.5145 
E_coul   =      -866.6101 E_long   =         0.0000 Press    =        -2.6435 
---------------- Step    79950 ----- CPU =     14.7214 (sec) ----------------
TotEng   =     -1476.4049 KinEng   =       210.3359 Temp     =       196.5552 
PotEng   =     -1686.7408 E_bond   =       112.0398 E_angle  =        72.2815 
E_dihed  =        18.6899 E_impro  =         5.1674 E_vdwl   =     -1022.4895 
E_coul   =      -872.4297 E_long   =         0.0000 Press    =        -2.3683 
---------------- Step    80000 ----- CPU =     14.7306 (sec) ----------------
TotEng   =     -1492.0923 KinEng   =       195.8783 Temp     =       183.0449 
PotEng   =     -1687.9706 E_bond   =       111.0799 E_angle  =        68.4207 
E_dihed  =        21.9037 E_impro  =         5.6376 E_vdwl   =     -1028.5810 
E_coul   =      -866.4315 E_long   =         0.0000 Press    =        -2.9466 
---------------- Step    80050 ----- CPU =     14.7391 (sec) ----------------
TotEng   =     -1489.9174 KinEng   =       197.0437 Temp     =       184.1339 
PotEng   =     -1686.9611 E_bond   =       106.9817 E_angle  =        71.3552 
E_dihed  =        20.1600 E_impro  =         5.7142 E_vdwl   =     -1034.6517 
E_coul   =      -856.5204 E_long   =         0.0000 Press    =        -4.0971 
---------------- Step    80073 ----- CPU =     14.7431 (sec) ----------------
TotEng   =     -1461.1160 KinEng   =       226.8018 Temp     =       211.9424 
PotEng   =     -1687.9178 E_bond   =        97.3835 E_angle  =        70.0227 
E_dihed  =        22.3999 E_impro  =         4.2749 E_vdwl   =     -1019.7615 
E_coul   =      -862.2373 E_long   =         0.0000 Press    =        -2.0768 
Loop time of 14.7441 on 1 procs for 80000 steps with 360 atoms

Performance: 1406.392 ns/day, 0.017 hours/ns, 5425.897 timesteps/s
96.4% CPU use with 1 MPI tasks x 1 OpenMP threads

MPI task timing breakdown:
Section |  min time  |  avg time  |  max time  |%varavg| %total
---------------------------------------------------------------
Pair    | 10.164     | 10.164     | 10.164     |   0.0 | 68.94
Bond    | 1.4893     | 1.4893     | 1.4893     |   0.0 | 10.10
Neigh   | 0.34529    | 0.34529    | 0.34529    |   0.0 |  2.34
Comm    | 0.022962   | 0.022962   | 0.022962   |   0.0 |  0.16
Output  | 0.62368    | 0.62368    | 0.62368    |   0.0 |  4.23
Modify  | 1.9749     | 1.9749     | 1.9749     |   0.0 | 13.39
Other   |            | 0.1238     |            |       |  0.84

Nlocal:        360.000 ave         360 max         360 min
Histogram: 1 0 0 0 0 0 0 0 0 0
Nghost:         0.00000 ave           0 max           0 min
Histogram: 1 0 0 0 0 0 0 0 0 0
Neighs:        8504.00 ave        8504 max        8504 min
Histogram: 1 0 0 0 0 0 0 0 0 0

Total # of neighbors = 8504
Ave neighs/atom = 23.622222
Ave special neighs/atom = 5.5444444
Neighbor list builds = 994
Dangerous builds = 0

Total wall time: 0:00:14
