ITEM: TIMESTEP
500
ITEM: NUMBER OF ATOMS
360
ITEM: BOX BOUNDS pp pp pp
-6.0000000000000000e+01 6.0000000000000000e+01
-6.0000000000000000e+01 6.0000000000000000e+01
-1.9000000000000000e+02 1.9000000000000000e+02
ITEM: ATOMS id type xu yu zu
116 12 -0.400873 -1.81515 -85.4925
117 6 -1.63676 -1.02235 -88.2955
119 9 2.66694 -3.36733 -85.402
120 2 0.706703 -6.38438 -86.582
174 6 5.78509 -0.626228 -87.3723
109 2 -1.0288 5.03409 -85.7089
110 16 -2.54352 6.20816 -87.2402
118 1 -2.82206 1.55784 -89.1928
111 4 1.47726 2.99509 -86.5763
112 3 1.48254 2.79983 -89.7207
179 6 5.62803 4.90275 -86.8035
180 1 5.85893 4.00412 -89.6326
102 10 -8.48503 9.97301 -85.6217
101 10 -5.97644 9.8187 -86.5788
182 13 0.351134 10.5374 -87.4909
87 2 -3.19982 -8.33708 -81.3126
88 6 -2.11924 -11.2524 -82.1816
89 1 -0.424329 -11.5478 -84.1954
124 2 4.03031 -8.23665 -83.0825
125 2 2.05421 -9.68499 -80.1831
126 8 3.19425 -12.5241 -79.4165
170 15 6.99015 -7.03422 -78.9565
94 11 -8.69377 -3.59235 -79.4021
90 12 -2.28148 -5.06978 -81.2531
92 12 -4.95543 -3.15326 -82.5068
93 2 -6.04829 -0.868683 -80.2467
91 16 0.174316 -4.70655 -81.4104
121 2 4.95401 -5.42364 -83.5523
171 2 6.28078 -1.02202 -82.9208
172 8 3.54637 -1.75557 -80.9607
122 6 8.22706 -5.09961 -84.1456
123 1 10.7572 -5.87264 -82.4352
164 12 11.2016 -0.107115 -81.4358
167 12 8.62869 -1.60128 -80.7333
168 14 7.00912 -4.26357 -79.3714
165 6 14.6015 -0.41231 -81.0868
166 1 15.7188 -1.17793 -79.3543
95 11 -9.13145 1.41658 -80.6478
96 7 -10.5277 4.60242 -78.2525
99 2 -7.55794 5.32484 -83.1314
103 2 -5.09289 3.23817 -83.1817
104 16 -4.90271 1.45963 -84.8549
105 2 -2.35767 5.04606 -82.4596
115 2 -1.71763 0.87216 -80.7428
67 6 1.47072 6.83846 -80.4327
113 7 2.51442 1.55451 -84.0285
114 12 -0.162855 0.0967249 -83.0481
151 14 5.87763 2.69723 -79.8714
152 15 3.61486 2.2289 -78.9415
161 12 10.8614 2.77279 -80.4473
162 6 11.9766 6.03593 -81.3925
173 7 7.88039 0.081268 -85.4665
175 12 8.6517 4.29165 -84.9174
98 12 -8.74627 6.67519 -79.6807
100 10 -7.39579 8.01116 -84.8849
106 14 -3.75448 7.59417 -82.1334
107 14 -5.09765 9.46874 -81.3692
108 15 -3.1465 10.1465 -82.6813
181 2 2.17049 9.26128 -84.169
176 2 6.3864 6.59724 -82.4548
178 2 4.17328 6.89767 -84.6679
183 2 3.04228 11.334 -81.6429
185 2 6.07449 12.1236 -79.2185
163 1 11.9941 8.1219 -79.7504
177 16 7.14806 7.31515 -80.2733
64 16 -4.10257 13.9239 -79.8924
184 8 1.39091 13.5967 -81.8991
79 12 -8.04405 -7.41178 -73.3823
83 12 -6.63908 -9.77939 -75.3346
84 2 -5.73218 -7.81359 -78.4628
127 2 -0.912035 -10.6746 -77.6837
128 16 -0.98892 -13.1842 -77.6565
129 2 -2.30869 -10.8798 -72.9437
130 14 -2.25571 -8.07628 -73.8287
132 10 -0.924627 -8.0199 -76.2712
141 4 5.7281 -8.0832 -74.3991
142 16 3.89922 -9.70911 -75.4598
76 12 -7.74495 -0.796299 -75.4908
77 2 -7.55256 -4.2739 -74.6981
78 8 -4.64704 -3.80201 -73.1303
85 7 -4.23852 -4.99054 -78.0521
86 1 -2.31423 -2.2476 -77.0661
131 17 -0.462113 -6.51611 -74.8823
169 14 5.00498 -5.72778 -78.8157
133 10 0.983335 -6.33197 -76.9992
143 12 5.35144 -5.20681 -73.6212
144 8 3.59098 -3.06047 -74.8158
145 9 8.51987 -4.54934 -72.5604
147 9 9.83654 -4.27587 -75.4665
148 3 12.2878 -4.10631 -78.3945
149 9 8.19345 -1.30756 -76.0384
156 3 17.3184 -0.877778 -74.9208
208 1 14.7519 -4.64176 -74.6365
73 14 -8.79679 3.33639 -74.046
75 15 -10.4593 5.02795 -72.5139
97 6 -12.6346 3.10437 -76.898
68 2 -2.3426 5.02718 -77.3523
69 2 -5.43315 3.71214 -78.1664
70 2 -2.20482 2.31447 -74.6635
72 12 -6.39614 2.04117 -76.0121
220 14 0.437372 5.86583 -71.692
40 15 3.42313 6.8808 -74.8478
71 8 0.64469 1.16287 -75.4895
150 14 5.57037 0.954699 -77.6885
154 8 6.38839 2.81806 -75.2107
153 12 9.47263 1.57972 -75.2279
159 7 10.4108 3.6381 -77.3792
160 6 9.55662 6.3627 -76.1119
155 12 13.7904 0.920637 -75.2741
157 2 13.7332 3.8269 -76.6662
158 2 16.2866 5.94154 -76.5559
195 1 17.9549 2.88142 -72.5564
57 14 -11.0458 11.0181 -74.8093
58 15 -10.0171 9.00762 -75.6646
59 15 -12.4693 8.64807 -75.0607
38 2 -0.401535 9.98161 -73.4046
42 2 -4.23624 9.13528 -74.262
43 16 -5.33646 8.64166 -76.6397
44 2 -6.09333 7.43271 -72.1527
60 2 -6.39821 13.7871 -75.0626
63 2 -2.93305 12.9003 -77.7888
65 2 -0.600923 10.617 -78.256
66 11 -0.552522 7.40273 -78.191
39 14 2.67063 9.35509 -74.6632
41 15 4.41482 8.4471 -76.6722
186 10 4.17469 13.1087 -77.2374
187 10 3.73245 13.3751 -74.3983
22 10 7.04579 9.60442 -73.1107
189 11 9.04679 11.6438 -77.3935
190 2 11.4088 10.9365 -74.6415
191 2 12.9702 8.43912 -73.2022
192 8 15.9074 9.53145 -73.7107
56 2 -10.5497 14.0002 -73.306
36 12 -1.34763 13.3085 -72.4792
37 13 -2.39942 15.945 -73.9834
188 10 2.59051 14.568 -76.0488
32 13 8.37747 15.4047 -73.1728
81 10 -3.72677 -7.19908 -69.4314
134 2 0.40769 -9.78966 -70.0148
135 6 1.17313 -11.9066 -67.8261
136 1 3.80003 -12.3172 -66.4419
137 4 3.30528 -8.63178 -70.1153
138 3 4.90424 -7.94921 -65.8734
139 4 6.20091 -9.21123 -71.1142
140 3 6.93741 -8.73163 -66.686
146 13 10.7312 -6.54566 -70.0541
231 9 -7.23915 -1.1894 -69.9186
232 16 -9.43717 -2.37926 -70.6325
82 10 -5.76402 -5.52908 -68.156
80 10 -5.84441 -6.82689 -70.8752
222 7 -0.595765 -1.94869 -71.5706
224 7 -1.86817 -1.92734 -68.5596
215 7 4.60557 -2.00902 -70.5085
216 8 5.52962 -4.45633 -69.0676
217 13 2.58488 -0.392435 -68.6283
223 8 0.856541 -4.95277 -70.8383
225 6 0.440798 -3.91772 -66.8438
200 6 12.2789 -4.16912 -66.0871
201 1 8.99181 -4.97324 -65.4346
206 4 11.2006 -0.406126 -70.5513
207 7 13.2779 -2.4895 -71.6242
209 7 9.36666 -1.58534 -68.5891
199 4 15.0502 -1.57783 -67.4543
48 12 -12.2277 5.85482 -68.2995
49 6 -12.5746 2.83547 -67.2769
74 15 -10.4081 2.56389 -72.2961
233 9 -7.4485 0.784179 -67.3952
235 3 -7.71371 4.12791 -67.8142
45 5 -4.66837 5.2017 -71.9093
221 15 -0.407826 5.32311 -69.5845
227 9 -2.94509 0.84161 -69.0196
228 6 -2.95875 2.95414 -66.5604
230 7 -5.23465 0.6642 -71.4865
5 5 4.05918 3.12041 -66.2525
218 7 1.11855 0.98396 -70.7821
219 14 0.807529 3.45435 -71.1018
213 7 6.121 0.745444 -71.2958
214 8 5.42959 4.16945 -70.9854
204 4 12.1493 2.15162 -68.6394
205 3 12.4075 5.76316 -66.631
211 7 7.38157 1.04227 -68.4497
202 4 12.9071 0.513845 -66.081
193 2 14.0277 5.83322 -71.8521
194 6 17.0868 5.36547 -72.2148
196 2 15.9638 1.10277 -69.8713
197 6 16.5881 3.14822 -67.2037
51 12 -13.9996 8.19251 -70.1025
46 2 -8.54249 8.98574 -70.2821
52 2 -10.3865 9.76913 -70.2835
53 2 -11.4461 13.0197 -69.4161
54 6 -11.2452 12.0258 -66.0218
47 3 -6.62172 11.8036 -67.3438
13 6 -2.38358 9.51443 -68.5485
14 1 -4.54335 7.59741 -67.6416
61 6 -6.1399 13.4129 -72.0506
11 4 4.00775 7.37046 -67.9562
12 7 1.3691 9.79106 -67.9431
18 7 5.7425 11.3722 -66.7277
21 10 6.78214 11.2078 -71.3675
20 9 5.25406 12.7748 -69.2549
23 10 8.21859 8.85599 -71.2455
29 6 10.7951 12.8589 -68.5638
30 1 12.218 10.2324 -68.1737
62 1 -6.82113 15.1844 -70.3397
35 11 -2.25535 15.5519 -68.5702
24 9 4.50478 15.885 -67.5674
25 5 2.30876 16.8176 -66.4795
33 7 2.61664 17.3868 -71.6211
34 12 0.789887 14.2433 -70.2781
26 9 7.27041 16.0377 -65.8796
28 9 9.23522 16.0161 -68.3899
31 12 7.08677 17.4047 -70.6019
234 2 -6.99217 -0.424349 -64.9309
3 3 -1.36407 -0.737585 -63.7283
226 1 3.18048 -3.63202 -65.1523
1 1 1.1445 -0.0191376 -59.7304
212 3 6.73442 -0.672212 -65.0512
203 16 11.8904 -0.797787 -63.8156
210 3 6.97379 -0.948004 -64.4166
50 1 -11.2571 2.54161 -64.8631
236 3 -7.73718 5.72679 -64.706
229 1 -3.81386 3.4373 -64.0131
4 4 1.62262 3.26203 -65.3965
2 2 1.2222 1.01706 -62.9855
6 4 1.40186 6.10643 -63.9161
9 6 7.44188 5.78414 -64.9565
10 1 8.74739 3.35013 -64.354
198 1 16.1927 4.18991 -64.8156
55 1 -10.1982 9.27096 -65.621
7 3 -1.6894 7.79525 -64.045
16 6 -0.1661 13.1452 -64.692
17 1 -2.77819 12.2724 -64.2701
15 7 2.93053 11.5543 -65.4935
8 4 4.37487 7.25544 -64.9227
19 8 8.26965 10.8537 -64.634
27 11 7.20616 19.7888 -65.2302
316 18 -14.4631 -13.7475 -30
318 18 -13.0178 -15.1232 -30
320 18 -11.4423 -16.3478 -30
322 18 -9.75234 -17.4088 -30
324 18 -7.96487 -18.2958 -30
326 18 -6.09776 -18.9998 -30
328 18 -4.16966 -19.5138 -30
330 18 -2.19988 -19.8327 -30
332 18 -0.208089 -19.9532 -30
334 18 1.78578 -19.8742 -30
336 18 3.76179 -19.5965 -30
338 18 5.70018 -19.1228 -30
340 18 7.58157 -18.4579 -30
342 18 9.38716 -17.6084 -30
344 18 11.0988 -16.5829 -30
346 18 12.7003 -15.3908 -30
348 18 14.169 -14.0507 -30
308 18 -18.6761 -7.02691 -30
310 18 -17.8809 -8.85705 -30
312 18 -16.9069 -10.5986 -30
314 18 -15.7638 -12.2342 -30
350 18 15.5282 -12.5305 -30
352 18 16.6186 -11.0494 -30
354 18 17.8509 -8.91131 -30
356 18 18.335 -7.87758 -30
302 18 -19.9187 -1.19141 -30
304 18 -19.7001 -3.17483 -30
306 18 -19.2845 -5.1265 -30
358 18 19.2752 -5.21536 -30
360 18 19.545 -4.12608 -30
296 18 -19.3806 4.75062 -30
298 18 -19.7581 2.79123 -30
300 18 -19.9381 0.803932 -30
294 18 -18.8092 6.6625 -30
240 18 19.8986 1.66752 -30
242 18 19.452 4.45533 -30
244 18 19.1615 5.55922 -30
238 18 19.9682 0.547491 -30
288 18 -15.9987 11.9254 -30
290 18 -17.1098 10.2679 -30
292 18 -18.0497 8.50775 -30
246 18 18.3333 7.88389 -30
248 18 17.5268 9.53679 -30
250 18 16.4628 11.2764 -30
252 18 15.2587 12.8587 -30
286 18 -14.7277 13.4637 -30
284 18 -13.3094 14.8673 -30
278 18 -8.31906 18.1375 -30
280 18 -10.0889 17.2159 -30
282 18 -11.7579 16.1222 -30
270 18 -0.595969 19.9454 -30
272 18 -2.58504 19.7862 -30
274 18 -4.54825 19.4291 -30
276 18 -6.46599 18.8777 -30
264 18 5.32733 19.23 -30
266 18 3.38009 19.666 -30
268 18 1.39906 19.9052 -30
256 18 12.3979 15.6354 -30
258 18 10.7744 16.7955 -30
260 18 9.04304 17.7876 -30
262 18 7.22129 18.6018 -30
254 18 13.8974 14.3191 -30
315 18 -14.4631 -13.7475 30
317 18 -13.0178 -15.1232 30
319 18 -11.4423 -16.3478 30
321 18 -9.75234 -17.4088 30
323 18 -7.96487 -18.2958 30
325 18 -6.09776 -18.9998 30
327 18 -4.16966 -19.5138 30
329 18 -2.19988 -19.8327 30
331 18 -0.208089 -19.9532 30
333 18 1.78578 -19.8742 30
335 18 3.76179 -19.5965 30
337 18 5.70018 -19.1228 30
339 18 7.58157 -18.4579 30
341 18 9.38716 -17.6084 30
343 18 11.0988 -16.5829 30
345 18 12.7003 -15.3908 30
347 18 14.169 -14.0507 30
307 18 -18.6761 -7.02691 30
309 18 -17.8809 -8.85705 30
311 18 -16.9069 -10.5986 30
313 18 -15.7638 -12.2342 30
349 18 15.5282 -12.5305 30
351 18 16.6186 -11.0494 30
353 18 17.8509 -8.91131 30
355 18 18.335 -7.87758 30
301 18 -19.9187 -1.19141 30
303 18 -19.7001 -3.17483 30
305 18 -19.2845 -5.1265 30
357 18 19.2752 -5.21536 30
359 18 19.545 -4.12608 30
295 18 -19.3806 4.75062 30
297 18 -19.7581 2.79123 30
299 18 -19.9381 0.803932 30
293 18 -18.8092 6.6625 30
239 18 19.8986 1.66752 30
241 18 19.452 4.45533 30
243 18 19.1615 5.55922 30
237 18 19.9682 0.547491 30
287 18 -15.9987 11.9254 30
289 18 -17.1098 10.2679 30
291 18 -18.0497 8.50775 30
245 18 18.3333 7.88389 30
247 18 17.5268 9.53679 30
249 18 16.4628 11.2764 30
251 18 15.2587 12.8587 30
285 18 -14.7277 13.4637 30
283 18 -13.3094 14.8673 30
277 18 -8.31906 18.1375 30
279 18 -10.0889 17.2159 30
281 18 -11.7579 16.1222 30
269 18 -0.595969 19.9454 30
271 18 -2.58504 19.7862 30
273 18 -4.54825 19.4291 30
275 18 -6.46599 18.8777 30
263 18 5.32733 19.23 30
265 18 3.38009 19.666 30
267 18 1.39906 19.9052 30
255 18 12.3979 15.6354 30
257 18 10.7744 16.7955 30
259 18 9.04304 17.7876 30
261 18 7.22129 18.6018 30
253 18 13.8974 14.3191 30
ITEM: TIMESTEP
1000
ITEM: NUMBER OF ATOMS
360
ITEM: BOX BOUNDS pp pp pp
-6.0000000000000000e+01 6.0000000000000000e+01
-6.0000000000000000e+01 6.0000000000000000e+01
-1.9000000000000000e+02 1.9000000000000000e+02
ITEM: ATOMS id type xu yu zu
116 12 -0.407925 -1.732 -85.2835
117 6 -1.33212 -0.925956 -88.4338
119 9 2.48406 -3.44134 -85.2672
120 2 0.757921 -6.26267 -86.5031
174 6 6.23544 -0.412614 -87.4692
109 2 -0.651297 5.13837 -85.6097
110 16 -2.4583 5.7496 -87.1346
118 1 -2.75985 1.41737 -89.7322
111 4 1.50001 2.8631 -86.409
112 3 1.54207 2.46226 -89.588
179 6 6.05256 5.62143 -86.9498
180 1 5.87405 3.91355 -89.4694
102 10 -7.97199 10.1275 -85.179
101 10 -5.86941 9.31127 -86.7215
182 13 0.98538 10.1682 -87.7791
87 2 -3.93931 -8.77651 -80.7488
88 6 -2.21087 -11.2976 -82.253
89 1 -0.488634 -11.5704 -84.1563
124 2 3.35251 -8.42172 -82.6529
125 2 2.31204 -9.74534 -80.4617
126 8 3.38483 -12.3513 -79.4726
170 15 7.40659 -6.50019 -78.5862
94 11 -8.57435 -3.87673 -79.9979
90 12 -2.54672 -5.20299 -81.2017
92 12 -4.26937 -3.06979 -82.7669
93 2 -6.21401 -0.691643 -80.4248
91 16 0.0464257 -4.91631 -81.5595
121 2 4.64827 -5.48747 -83.7613
171 2 6.30956 -0.808084 -82.8434
172 8 4.11901 -1.8834 -81.1427
122 6 8.20401 -5.42048 -84.0348
123 1 10.7445 -5.65505 -82.859
164 12 11.3074 -0.156491 -81.5869
167 12 8.61279 -1.47832 -80.6617
168 14 6.85615 -4.04115 -79.536
165 6 14.6647 -1.11826 -81.1291
166 1 16.302 -0.972366 -79.0869
95 11 -9.06964 1.69345 -80.494
96 7 -10.3698 5.05074 -78.5759
99 2 -7.81925 5.10077 -83.1246
103 2 -4.70296 3.222 -83.2109
104 16 -5.01945 1.34866 -84.9577
105 2 -2.1699 5.4818 -82.4346
115 2 -1.35064 0.967587 -80.5838
67 6 1.7175 6.43344 -80.0528
113 7 2.81068 1.77776 -84.3244
114 12 0.246058 -0.185001 -82.9937
151 14 5.96022 2.58868 -80.0603
152 15 3.53526 2.20126 -79.4623
161 12 10.8736 2.96682 -80.4368
162 6 11.2906 5.75069 -81.4599
173 7 7.76593 0.563814 -84.9779
175 12 8.32769 4.4684 -84.8141
98 12 -9.07321 7.32032 -80.1493
100 10 -7.38924 7.71282 -84.8729
106 14 -3.47464 7.95514 -82.4718
107 14 -4.77779 9.79894 -81.5664
108 15 -2.95496 10.5334 -83.0758
181 2 2.15385 9.10198 -84.2876
176 2 6.32253 6.5373 -82.1263
178 2 4.07092 6.873 -84.3736
183 2 3.50394 10.9726 -81.2368
185 2 5.93112 12.5763 -79.3964
163 1 11.9265 7.92425 -79.8763
177 16 6.95389 7.40787 -79.9946
64 16 -3.92431 14.1339 -79.9562
184 8 1.34802 13.3849 -82.126
79 12 -8.62148 -7.26472 -72.9728
83 12 -6.83908 -9.44098 -75.5892
84 2 -5.20573 -7.93984 -77.942
127 2 -0.63522 -10.5963 -77.5007
128 16 -0.898122 -12.9871 -77.7399
129 2 -1.88876 -11.0862 -72.8422
130 14 -2.05391 -7.96697 -73.6075
132 10 -0.545534 -8.1763 -76.2664
141 4 6.08756 -8.09853 -74.4186
142 16 4.35678 -9.4931 -75.7199
76 12 -8.14021 -0.86275 -75.8824
77 2 -7.74835 -4.28434 -74.9459
78 8 -4.86564 -3.89714 -73.1992
85 7 -3.81812 -4.65035 -77.9689
86 1 -2.43322 -1.99675 -77.1736
131 17 -0.45462 -6.1675 -74.7798
169 14 5.08221 -5.50098 -78.4533
133 10 0.877908 -5.74416 -76.8141
143 12 5.45544 -5.1647 -73.7332
144 8 3.66052 -2.66092 -74.9017
145 9 8.56483 -4.4325 -72.6498
147 9 10.0955 -4.06748 -75.1664
148 3 12.7902 -4.09973 -78.2377
149 9 8.31387 -1.30524 -75.8576
156 3 17.3009 -0.776623 -74.3823
208 1 14.8952 -4.59642 -74.1752
73 14 -8.5729 3.83432 -73.6474
75 15 -10.5464 5.23573 -73.0314
97 6 -12.4443 3.81979 -77.4741
68 2 -2.59808 4.8429 -77.1028
69 2 -5.36147 4.30649 -78.456
70 2 -2.47867 2.44269 -74.8064
72 12 -6.86371 2.28856 -75.6928
220 14 0.143772 6.31959 -71.7123
40 15 3.7386 7.00443 -74.4567
71 8 0.511389 1.29562 -75.5
150 14 5.61355 0.932675 -77.8871
154 8 5.9945 2.93831 -75.5935
153 12 9.65199 1.59424 -75.2132
159 7 10.5819 3.3775 -77.1393
160 6 9.25016 6.27028 -76.2179
155 12 14.1217 1.47725 -74.6266
157 2 13.7351 3.96152 -76.2233
158 2 15.8468 5.97061 -77.0922
195 1 18.4712 3.41176 -72.6369
57 14 -10.7792 11.1496 -74.613
58 15 -10.1635 8.87546 -75.8182
59 15 -12.6156 9.05776 -74.9649
38 2 -1.13739 10.2054 -73.8032
42 2 -4.37552 9.3011 -74.7401
43 16 -5.53715 9.06502 -77.2493
44 2 -5.88508 7.77477 -72.4483
60 2 -6.96814 13.6835 -75.5712
63 2 -2.77388 12.9775 -77.8811
65 2 -0.646585 10.5353 -78.7818
66 11 -0.591076 7.24072 -78.2307
39 14 2.03359 8.98957 -74.3817
41 15 4.32131 8.51065 -76.1016
186 10 4.31036 13.0862 -77.0334
187 10 3.74974 12.9596 -74.5234
22 10 7.31654 9.29039 -73.0182
189 11 8.70541 11.3721 -77.3843
190 2 11.5236 10.9092 -75.1669
191 2 13.3703 8.50648 -73.4798
192 8 16.0028 9.78099 -73.7721
56 2 -10.6335 13.9473 -73.3625
36 12 -1.15598 13.228 -73.0116
37 13 -2.44551 15.8652 -74.0198
188 10 2.53794 14.9047 -76.1089
32 13 8.63902 15.3107 -73.1887
81 10 -4.00856 -7.52877 -69.7172
134 2 0.324449 -10.3557 -70.025
135 6 1.20432 -12.1994 -67.7341
136 1 4.06307 -12.1433 -66.9379
137 4 3.61213 -8.60968 -70.0786
138 3 5.13957 -7.80144 -65.9573
139 4 6.61629 -9.03172 -71.2224
140 3 7.02771 -8.66162 -66.7139
146 13 10.6955 -6.59669 -70.5812
231 9 -7.17523 -1.2161 -69.8499
232 16 -9.20671 -2.50748 -70.4528
82 10 -5.64405 -5.73171 -68.7204
80 10 -6.04303 -7.06218 -71.2417
222 7 -0.613372 -1.57774 -71.8772
224 7 -2.06701 -1.54313 -68.7225
215 7 4.67595 -2.0025 -70.4369
216 8 5.96612 -4.43115 -69.0909
217 13 2.83852 -0.515088 -68.4963
223 8 0.81372 -4.71445 -70.5585
225 6 0.128397 -3.7769 -66.5206
200 6 12.4507 -4.39217 -65.7782
201 1 9.04681 -4.9835 -65.1918
206 4 11.1706 -0.500837 -70.643
207 7 13.4047 -2.63858 -71.8182
209 7 9.3338 -1.58589 -68.5126
199 4 14.9368 -1.47403 -67.2659
48 12 -12.7606 5.91535 -68.8123
49 6 -12.695 3.06613 -67.4001
74 15 -10.0439 2.67483 -71.6852
233 9 -7.60816 0.705442 -67.3151
235 3 -7.7191 4.0077 -67.4603
45 5 -4.75447 5.41829 -71.943
221 15 -0.25234 5.33797 -69.2229
227 9 -3.3756 1.29994 -69.2329
228 6 -3.13868 2.99772 -66.3465
230 7 -5.32096 0.798347 -71.5276
5 5 4.01579 3.15658 -66.2199
218 7 1.09242 0.997772 -70.9164
219 14 0.350728 3.9047 -71.2757
213 7 6.21722 0.665678 -71.4378
214 8 5.40521 4.33456 -70.7481
204 4 12.0169 2.1337 -68.6781
205 3 12.3871 5.80259 -66.5933
211 7 7.4401 1.11191 -68.4692
202 4 12.6661 0.345104 -66.2009
193 2 13.8456 5.65905 -71.532
194 6 16.8364 5.14636 -72.2624
196 2 15.8404 0.961181 -69.712
197 6 16.3172 2.86333 -67.0186
51 12 -13.6548 7.59753 -70.1349
46 2 -8.54228 8.5607 -70.2469
52 2 -9.92735 9.79982 -70.4471
53 2 -11.2046 12.6156 -69.8596
54 6 -11.0501 11.8368 -66.3412
47 3 -6.46729 11.5314 -67.3697
13 6 -2.0523 9.47903 -68.6424
14 1 -4.46971 7.40369 -67.476
61 6 -6.07248 13.268 -72.123
11 4 3.81536 7.56714 -67.8835
12 7 1.42839 9.70278 -67.7548
18 7 5.84412 11.4506 -66.9342
21 10 6.80368 11.2051 -71.6805
20 9 5.35522 12.9069 -69.4594
23 10 8.29617 9.25939 -70.8509
29 6 10.7549 12.6672 -68.4912
30 1 12.0159 10.0681 -68.1491
62 1 -6.54314 15.0806 -70.4937
35 11 -2.14425 15.3331 -68.3317
24 9 4.53006 15.7169 -67.7219
25 5 2.80961 17.0989 -66.6594
33 7 2.85922 17.0676 -71.7809
34 12 0.610458 14.2168 -70.4027
26 9 7.34026 15.8071 -66.0549
28 9 9.2517 15.7192 -68.3656
31 12 7.37003 17.398 -70.7022
234 2 -7.06276 -0.455485 -64.5216
3 3 -1.74775 -0.825279 -63.3334
226 1 3.14263 -3.77362 -65.3268
1 1 1.43394 0.163413 -60.031
212 3 6.70394 -0.47135 -64.9325
203 16 12.211 -0.150379 -63.6238
210 3 7.02662 -0.984508 -64.5648
50 1 -11.6203 2.69101 -64.7912
236 3 -7.85542 5.46208 -64.5467
229 1 -3.84974 3.34487 -63.7287
4 4 1.58511 3.1549 -65.5926
2 2 1.22892 0.386452 -63.6445
6 4 1.47379 5.96833 -63.7835
9 6 7.82973 5.89454 -64.8171
10 1 8.94981 3.45677 -64.8604
198 1 16.0919 4.31164 -64.3748
55 1 -10.1869 9.11647 -65.8847
7 3 -1.72799 7.6806 -63.6604
16 6 0.0260648 12.9068 -64.4667
17 1 -2.63244 12.1749 -64.0966
15 7 3.02049 11.3996 -65.4881
8 4 4.13686 7.25853 -64.6943
19 8 7.9056 10.7284 -64.8684
27 11 7.41183 18.97 -64.5294
316 18 -14.4631 -13.7475 -30
318 18 -13.0178 -15.1232 -30
320 18 -11.4423 -16.3478 -30
322 18 -9.75234 -17.4088 -30
324 18 -7.96487 -18.2958 -30
326 18 -6.09776 -18.9998 -30
328 18 -4.16966 -19.5138 -30
330 18 -2.19988 -19.8327 -30
332 18 -0.208089 -19.9532 -30
334 18 1.78578 -19.8742 -30
336 18 3.76179 -19.5965 -30
338 18 5.70018 -19.1228 -30
340 18 7.58157 -18.4579 -30
342 18 9.38716 -17.6084 -30
344 18 11.0988 -16.5829 -30
346 18 12.7003 -15.3908 -30
348 18 14.169 -14.0507 -30
308 18 -18.6761 -7.02691 -30
310 18 -17.8809 -8.85705 -30
312 18 -16.9069 -10.5986 -30
314 18 -15.7638 -12.2342 -30
350 18 15.5282 -12.5305 -30
352 18 16.6186 -11.0494 -30
354 18 17.8509 -8.91131 -30
356 18 18.335 -7.87758 -30
302 18 -19.9187 -1.19141 -30
304 18 -19.7001 -3.17483 -30
306 18 -19.2845 -5.1265 -30
358 18 19.2752 -5.21536 -30
360 18 19.545 -4.12608 -30
296 18 -19.3806 4.75062 -30
298 18 -19.7581 2.79123 -30
300 18 -19.9381 0.803932 -30
294 18 -18.8092 6.6625 -30
240 18 19.8986 1.66752 -30
242 18 19.452 4.45533 -30
244 18 19.1615 5.55922 -30
238 18 19.9682 0.547491 -30
288 18 -15.9987 11.9254 -30
290 18 -17.1098 10.2679 -30
292 18 -18.0497 8.50775 -30
246 18 18.3333 7.88389 -30
248 18 17.5268 9.53679 -30
250 18 16.4628 11.2764 -30
252 18 15.2587 12.8587 -30
286 18 -14.7277 13.4637 -30
284 18 -13.3094 14.8673 -30
278 18 -8.31906 18.1375 -30
280 18 -10.0889 17.2159 -30
282 18 -11.7579 16.1222 -30
270 18 -0.595969 19.9454 -30
272 18 -2.58504 19.7862 -30
274 18 -4.54825 19.4291 -30
276 18 -6.46599 18.8777 -30
264 18 5.32733 19.23 -30
266 18 3.38009 19.666 -30
268 18 1.39906 19.9052 -30
256 18 12.3979 15.6354 -30
258 18 10.7744 16.7955 -30
260 18 9.04304 17.7876 -30
262 18 7.22129 18.6018 -30
254 18 13.8974 14.3191 -30
315 18 -14.4631 -13.7475 30
317 18 -13.0178 -15.1232 30
319 18 -11.4423 -16.3478 30
321 18 -9.75234 -17.4088 30
323 18 -7.96487 -18.2958 30
325 18 -6.09776 -18.9998 30
327 18 -4.16966 -19.5138 30
329 18 -2.19988 -19.8327 30
331 18 -0.208089 -19.9532 30
333 18 1.78578 -19.8742 30
335 18 3.76179 -19.5965 30
337 18 5.70018 -19.1228 30
339 18 7.58157 -18.4579 30
341 18 9.38716 -17.6084 30
343 18 11.0988 -16.5829 30
345 18 12.7003 -15.3908 30
347 18 14.169 -14.0507 30
307 18 -18.6761 -7.02691 30
309 18 -17.8809 -8.85705 30
311 18 -16.9069 -10.5986 30
313 18 -15.7638 -12.2342 30
349 18 15.5282 -12.5305 30
351 18 16.6186 -11.0494 30
353 18 17.8509 -8.91131 30
355 18 18.335 -7.87758 30
301 18 -19.9187 -1.19141 30
303 18 -19.7001 -3.17483 30
305 18 -19.2845 -5.1265 30
357 18 19.2752 -5.21536 30
359 18 19.545 -4.12608 30
295 18 -19.3806 4.75062 30
297 18 -19.7581 2.79123 30
299 18 -19.9381 0.803932 30
293 18 -18.8092 6.6625 30
239 18 19.8986 1.66752 30
241 18 19.452 4.45533 30
243 18 19.1615 5.55922 30
237 18 19.9682 0.547491 30
287 18 -15.9987 11.9254 30
289 18 -17.1098 10.2679 30
291 18 -18.0497 8.50775 30
245 18 18.3333 7.88389 30
247 18 17.5268 9.53679 30
249 18 16.4628 11.2764 30
251 18 15.2587 12.8587 30
285 18 -14.7277 13.4637 30
283 18 -13.3094 14.8673 30
277 18 -8.31906 18.1375 30
279 18 -10.0889 17.2159 30
281 18 -11.7579 16.1222 30
269 18 -0.595969 19.9454 30
271 18 -2.58504 19.7862 30
273 18 -4.54825 19.4291 30
275 18 -6.46599 18.8777 30
263 18 5.32733 19.23 30
265 18 3.38009 19.666 30
267 18 1.39906 19.9052 30
255 18 12.3979 15.6354 30
257 18 10.7744 16.7955 30
259 18 9.04304 17.7876 30
261 18 7.22129 18.6018 30
253 18 13.8974 14.3191 30
ITEM: TIMESTEP
1500
ITEM: NUMBER OF ATOMS
360
ITEM: BOX BOUNDS pp pp pp
-6.0000000000000000e+01 6.0000000000000000e+01
-6.0000000000000000e+01 6.0000000000000000e+01
-1.9000000000000000e+02 1.9000000000000000e+02
ITEM: ATOMS id type xu yu zu
116 12 -0.205922 -1.6381 -85.8681
117 6 -1.58592 -0.724442 -88.3929
119 9 2.34184 -3.59192 -85.6194
120 2 0.697997 -6.22174 -86.7062
174 6 6.46555 -0.412696 -87.3329
109 2 -1.03762 5.41062 -85.5992
110 16 -2.39507 6.58448 -87.4063
118 1 -2.42387 1.78182 -89.3416
111 4 1.37183 3.07215 -86.4304
112 3 1.93729 2.5528 -89.4024
179 6 5.83185 5.22346 -87.1461
180 1 6.27613 4.04495 -89.8193
102 10 -7.96427 10.7607 -85.4249
101 10 -6.25284 9.71153 -86.8941
182 13 1.16387 9.89036 -87.8734
87 2 -4.12948 -9.07861 -81.1239
88 6 -1.94861 -11.6169 -82.1301
89 1 -0.278071 -10.7619 -84.1223
124 2 3.64316 -8.23762 -82.6098
125 2 2.05579 -9.78883 -79.8387
126 8 3.21972 -12.8298 -80.0993
94 11 -9.16639 -3.73171 -80.3492
90 12 -2.61214 -5.42503 -81.6884
92 12 -4.5998 -3.08007 -83.1214
93 2 -6.25632 -1.06171 -80.3985
91 16 -0.098271 -5.19076 -81.5542
121 2 4.70073 -5.76591 -83.9189
171 2 6.63759 -0.998848 -82.8319
172 8 4.13914 -2.01454 -80.942
114 12 0.14251 -0.1386 -83.2249
170 15 7.32028 -6.77407 -79.0832
122 6 8.41034 -5.57636 -83.9106
123 1 10.9306 -5.72107 -82.0666
164 12 11.2724 0.294103 -81.5028
167 12 8.84708 -1.46287 -80.7033
168 14 6.74907 -4.13932 -79.5677
165 6 14.4783 -0.987662 -81.4532
166 1 16.1937 -0.635043 -79.0816
95 11 -8.94347 1.23223 -81.0887
96 7 -9.80589 5.16128 -78.9168
99 2 -7.6369 5.56937 -83.3771
103 2 -4.88412 3.36726 -83.0392
104 16 -4.55747 1.70471 -84.963
105 2 -2.2475 5.67804 -82.4093
115 2 -1.27941 1.34098 -80.6766
67 6 1.89189 6.51389 -80.1113
113 7 2.77223 1.46229 -84.1366
151 14 6.3859 2.4862 -79.9314
152 15 4.10308 2.08216 -79.418
176 2 6.17932 6.65887 -82.5044
161 12 10.8984 3.30921 -80.2882
162 6 11.4223 5.85105 -81.7121
173 7 8.07353 0.728966 -85.2534
175 12 8.47708 4.05856 -84.8542
98 12 -8.83504 7.01563 -80.3354
100 10 -7.21227 8.12586 -85.1701
106 14 -2.85485 8.58969 -82.0496
107 14 -5.10323 10.0444 -82.0887
108 15 -2.92747 10.8563 -83.4875
65 2 -0.470562 10.5627 -78.21
181 2 2.29385 9.3108 -84.4469
178 2 4.00206 6.72046 -84.6051
183 2 3.03458 10.8437 -81.5954
185 2 6.1197 12.576 -79.4168
163 1 12.2511 8.0961 -79.6583
177 16 6.54298 7.30267 -79.9503
64 16 -3.42655 14.4972 -80.4318
184 8 1.36411 13.3674 -82.1093
79 12 -8.3233 -7.02544 -72.8087
83 12 -7.09955 -9.53998 -75.227
84 2 -5.24245 -7.9922 -77.8398
127 2 -0.701769 -10.9194 -77.2523
128 16 -1.8646 -13.1677 -77.4574
129 2 -2.03675 -10.8257 -72.8214
130 14 -2.41848 -8.02529 -73.9275
132 10 -0.540674 -7.97924 -76.3798
141 4 6.00021 -8.2917 -74.2046
142 16 4.46924 -9.5905 -75.7327
76 12 -8.20686 -0.726434 -76.1016
77 2 -7.70893 -3.69061 -74.7538
78 8 -4.94095 -3.83382 -73.4432
85 7 -4.30955 -4.94264 -78.0273
86 1 -2.07683 -2.31453 -77.9006
131 17 -0.917581 -6.06765 -74.7693
169 14 5.14838 -5.73283 -78.4362
133 10 0.718834 -5.96388 -76.846
143 12 5.65888 -5.07305 -73.7164
144 8 3.75182 -2.62282 -74.9943
145 9 8.62083 -4.3267 -72.5465
147 9 9.83553 -4.18855 -75.4074
148 3 12.8401 -3.80791 -78.1111
149 9 8.3422 -1.18768 -75.9828
156 3 17.2258 -0.528726 -74.8149
208 1 15.0689 -4.31231 -74.0798
73 14 -8.40098 3.39865 -73.7387
75 15 -10.5233 4.96363 -73.373
97 6 -12.6614 4.32443 -77.552
72 12 -6.6777 2.02463 -76.0562
68 2 -2.26582 5.1529 -77.1322
69 2 -5.49879 3.98936 -78.0084
70 2 -2.46301 1.84256 -74.7601
45 5 -4.37074 5.41826 -72.0299
71 8 0.650755 1.89132 -75.914
150 14 5.92131 0.839469 -77.8791
154 8 6.01202 2.77696 -75.2294
153 12 9.39573 1.93911 -75.0135
159 7 10.7098 4.15385 -77.2424
160 6 9.45424 6.4035 -76.2449
155 12 13.4523 1.31534 -74.413
157 2 13.8792 3.90565 -76.4246
158 2 15.9154 5.59787 -76.6384
195 1 19.0437 3.07879 -72.8285
194 6 17.0109 5.13038 -72.1806
57 14 -11.0508 11.0234 -74.7057
58 15 -9.99697 8.99286 -75.7213
59 15 -12.3949 8.92667 -75.2397
38 2 -0.82172 10.1949 -73.5145
42 2 -4.4666 9.23809 -75.0859
43 16 -5.42616 9.09929 -77.3689
44 2 -5.64572 7.7509 -72.4422
63 2 -2.89571 13.2027 -77.8152
66 11 -0.404021 6.74204 -77.9128
36 12 -1.04178 13.4604 -72.9218
40 15 3.77542 6.89531 -74.282
39 14 1.98045 9.0284 -74.1859
41 15 3.90035 8.90236 -76.2152
186 10 4.2006 13.483 -77.2025
187 10 3.65483 13.5241 -74.6596
22 10 7.46372 9.08627 -72.6333
189 11 8.88591 11.0379 -77.1731
190 2 11.4659 10.6167 -75.0317
191 2 13.3658 8.33339 -73.6903
192 8 16.1947 9.50903 -73.709
60 2 -6.09693 13.8628 -75.4518
56 2 -10.247 14.021 -73.736
37 13 -1.87432 16.6204 -74.0038
188 10 1.91893 14.5189 -76.4768
32 13 8.39162 15.0262 -73.1992
81 10 -3.62775 -6.93159 -69.6644
80 10 -5.87088 -6.45286 -70.944
134 2 0.589541 -10.0701 -70.1567
135 6 1.43323 -12.0133 -67.3474
136 1 4.33879 -12.3749 -66.9157
137 4 3.40142 -8.68934 -70.0618
138 3 5.24093 -7.96254 -66.0764
139 4 6.28952 -9.31743 -70.96
140 3 6.80335 -8.48941 -66.8453
231 9 -7.37811 -1.41944 -69.685
232 16 -9.71528 -2.49622 -70.3811
82 10 -5.96906 -6.11047 -68.4112
222 7 -0.720878 -1.87979 -72.152
224 7 -2.34109 -2.02894 -68.8152
215 7 4.76875 -1.9893 -70.435
216 8 5.54459 -4.51319 -69.1946
217 13 2.7535 -0.574941 -68.9108
223 8 0.835324 -4.66396 -70.6704
225 6 0.299834 -3.85049 -66.748
146 13 10.9315 -6.98158 -70.6152
200 6 12.5086 -4.37793 -65.3852
206 4 11.2028 -0.431655 -70.6777
207 7 13.1685 -2.53452 -71.9985
209 7 9.13006 -1.6428 -68.5181
199 4 14.8506 -1.48299 -67.4424
48 12 -12.9098 6.07223 -68.9823
49 6 -12.5232 3.22659 -67.1764
74 15 -9.77215 3.15579 -71.3341
233 9 -7.71873 0.905276 -67.0609
235 3 -7.48187 4.2205 -67.1205
221 15 -0.411193 5.23294 -69.398
227 9 -3.44859 1.03113 -69.1008
228 6 -2.86776 2.91449 -66.1882
230 7 -5.59878 0.512565 -71.4819
220 14 0.469812 5.90286 -71.4875
5 5 4.24802 2.99066 -66.1784
218 7 0.910761 0.769958 -71.2571
219 14 0.183245 3.60989 -70.8958
213 7 6.37149 0.956183 -71.125
214 8 5.77813 4.35841 -70.7798
204 4 11.8004 2.27144 -68.71
205 3 12.0743 6.0867 -66.7864
211 7 7.49596 1.00253 -68.2771
202 4 12.6975 0.413798 -66.0828
193 2 13.886 5.50621 -71.3816
196 2 16.354 1.16806 -69.1965
197 6 16.2232 2.95664 -66.9545
51 12 -13.2524 8.11244 -70.1911
46 2 -8.41543 8.64553 -70.4267
52 2 -10.0231 10.0505 -70.6692
53 2 -11.2928 13.0588 -69.6708
54 6 -10.8338 12.1031 -66.594
55 1 -10.0899 9.31663 -66.0068
47 3 -6.23366 11.5616 -67.7084
13 6 -2.05107 9.65733 -68.2654
14 1 -4.2076 7.3588 -67.3292
61 6 -5.73273 12.9842 -72.1399
11 4 3.66255 7.51874 -67.9758
12 7 1.38997 9.92516 -67.8979
18 7 5.7817 11.4505 -66.9559
21 10 6.05204 10.8329 -71.6482
20 9 5.17555 13.0462 -69.5527
23 10 8.05773 9.28995 -70.3072
29 6 11.0694 13.0867 -68.6703
30 1 12.2456 10.467 -68.1401
62 1 -6.64112 14.7793 -70.6489
35 11 -2.31141 14.9773 -68.017
24 9 4.60894 15.9154 -67.811
25 5 3.17426 17.6769 -67.1793
33 7 2.86797 17.1945 -71.7582
34 12 0.596257 14.1539 -70.2287
26 9 7.21231 16.0179 -65.966
28 9 9.34049 15.8916 -68.2972
31 12 7.5714 16.988 -71.0124
234 2 -6.80077 -0.567738 -64.4077
3 3 -1.60533 -0.7447 -63.2717
226 1 3.26298 -3.76935 -65.2557
201 1 9.26024 -4.80227 -65.2389
212 3 6.6625 -0.835158 -64.9087
210 3 6.79857 -0.823384 -64.3307
50 1 -11.3427 3.10451 -64.9703
236 3 -7.85504 5.83619 -64.3471
229 1 -3.79204 3.52161 -63.7776
1 1 2.12252 -0.343857 -60.6366
4 4 1.74023 3.2508 -65.3921
2 2 0.950526 0.365967 -63.9706
6 4 1.31913 5.96263 -64.0175
203 16 12.8175 -0.178195 -63.4588
9 6 7.30848 5.85865 -64.8072
10 1 8.95895 3.24945 -64.477
198 1 15.8026 4.41722 -64.5821
7 3 -1.81782 7.62485 -63.1156
17 1 -2.73625 12.3461 -63.4961
16 6 0.213871 12.7314 -64.4119
15 7 2.85117 11.4172 -65.6409
8 4 4.06969 7.17163 -65.0189
19 8 7.988 10.4784 -65.3144
27 11 7.64623 19.5004 -64.6488
316 18 -14.4631 -13.7475 -30
318 18 -13.0178 -15.1232 -30
320 18 -11.4423 -16.3478 -30
322 18 -9.75234 -17.4088 -30