LAMMPS (27 May 2021)
OMP_NUM_THREADS environment is not set. Defaulting to 1 thread. (src/comm.cpp:98)
  using 1 OpenMP thread(s) per MPI task
# only protein 1hrc

units		real
boundary	p p p
atom_style	full
dielectric 	80

pair_style	lj/cut/coul/debye 7.1e-12 12
bond_style      harmonic
special_bonds 	lj/coul 0.0 1.0 0.0
angle_style     cosine/squared
dihedral_style  charmm
improper_style  harmonic

read_data	data_file.txt
Reading data file ...
  orthogonal box = (-30.500000 -30.500000 -190.00000) to (30.500000 30.500000 190.00000)
  1 by 1 by 1 MPI processor grid
  reading atoms ...
  4145 atoms
  scanning bonds ...
  2 = max bonds/atom
  scanning angles ...
  2 = max angles/atom
  scanning impropers ...
  2 = max impropers/atom
  reading bonds ...
  169 bonds
  reading angles ...
  158 angles
  reading impropers ...
  9 impropers
Finding 1-2 1-3 1-4 neighbors ...
  special bond factors lj:    0        1        0       
  special bond factors coul:  0        1        0       
     3 = max # of 1-2 neighbors
     6 = max # of 1-3 neighbors
    16 = max # of 1-4 neighbors
    15 = max # of special neighbors
  special bonds CPU = 0.001 seconds
  read_data CPU = 0.017 seconds
group		protein molecule 1
161 atoms in group protein
group		driver id 1
1 atoms in group driver

velocity	driver set 0 0 0
neighbor	1.1 bin
neigh_modify	delay 5

timestep	3

thermo_style	multi
thermo		500

#minimize 	1.0e-3 1.0e-6 100 1000
fix		1 protein nvt temp 298.15 298.15 $(100.0*dt)
fix		1 protein nvt temp 298.15 298.15 300
fix		2 protein langevin 298.15 298.15 14 12345
fix		6 driver setforce 0 0 0

dump 		id all custom 500 output.lammpstrj id type xu yu zu		#vmd/pymol
run 		800000
Neighbor list info ...
  update every 1 steps, delay 5 steps, check yes
  max neighbors/atom: 2000, page size: 100000
  master list distance cutoff = 13.1
  ghost atom cutoff = 13.1
  binsize = 6.55, bins = 10 10 59
  1 neighbor lists, perpetual/occasional/extra = 1 0 0
  (1) pair lj/cut/coul/debye, perpetual
      attributes: half, newton on
      pair build: half/bin/newton
      stencil: half/bin/3d
      bin: standard
Per MPI rank memory allocation (min/avg/max) = 9.914 | 9.914 | 9.914 Mbytes
---------------- Step        0 ----- CPU =      0.0000 (sec) ----------------
TotEng   =  -1467278.0004 KinEng   =         0.0000 Temp     =         0.0000 
PotEng   =  -1467278.0004 E_bond   =        53.9997 E_angle  =        22.6996 
E_dihed  =         0.0000 E_impro  =         2.8924 E_vdwl   =  -1467354.2455 
E_coul   =        -3.3467 E_long   =         0.0000 Press    =    186403.4923 
---------------- Step      500 ----- CPU =      0.1791 (sec) ----------------
TotEng   =       552.8350 KinEng   =         6.4651 Temp     =         0.5234 
PotEng   =       546.3699 E_bond   =       735.3831 E_angle  =        34.2122 
E_dihed  =         0.0000 E_impro  =         5.4251 E_vdwl   =      -225.3269 
E_coul   =        -3.3236 E_long   =         0.0000 Press    =       -45.5010 
---------------- Step     1000 ----- CPU =      0.2951 (sec) ----------------
TotEng   =       -67.1541 KinEng   =         6.3514 Temp     =         0.5142 
PotEng   =       -73.5055 E_bond   =       142.2638 E_angle  =        32.9986 
E_dihed  =         0.0000 E_impro  =         3.5187 E_vdwl   =      -248.9192 
E_coul   =        -3.3674 E_long   =         0.0000 Press    =       -20.6364 
---------------- Step     1500 ----- CPU =      0.4020 (sec) ----------------
TotEng   =      -152.9645 KinEng   =         6.5869 Temp     =         0.5332 
PotEng   =      -159.5514 E_bond   =        65.8996 E_angle  =        30.9369 
E_dihed  =         0.0000 E_impro  =         2.7031 E_vdwl   =      -255.7234 
E_coul   =        -3.3676 E_long   =         0.0000 Press    =       -16.5363 
---------------- Step     2000 ----- CPU =      0.5110 (sec) ----------------
TotEng   =      -184.8780 KinEng   =         7.0004 Temp     =         0.5667 
PotEng   =      -191.8784 E_bond   =        45.1007 E_angle  =        29.3834 
E_dihed  =         0.0000 E_impro  =         2.0557 E_vdwl   =      -265.0346 
E_coul   =        -3.3836 E_long   =         0.0000 Press    =       -16.9612 
---------------- Step     2500 ----- CPU =      0.6170 (sec) ----------------
TotEng   =      -199.9078 KinEng   =         7.4213 Temp     =         0.6008 
PotEng   =      -207.3291 E_bond   =        34.9103 E_angle  =        28.4084 
E_dihed  =         0.0000 E_impro  =         2.0756 E_vdwl   =      -269.3425 
E_coul   =        -3.3809 E_long   =         0.0000 Press    =       -15.6821 
---------------- Step     3000 ----- CPU =      0.7220 (sec) ----------------
TotEng   =      -208.3082 KinEng   =         8.4099 Temp     =         0.6808 
PotEng   =      -216.7181 E_bond   =        29.9120 E_angle  =        27.8495 
E_dihed  =         0.0000 E_impro  =         1.9463 E_vdwl   =      -273.3924 
E_coul   =        -3.0336 E_long   =         0.0000 Press    =       -15.3116 
---------------- Step     3500 ----- CPU =      0.8276 (sec) ----------------
TotEng   =      -213.6319 KinEng   =         9.0370 Temp     =         0.7316 
PotEng   =      -222.6688 E_bond   =        29.5010 E_angle  =        26.5097 
E_dihed  =         0.0000 E_impro  =         1.4979 E_vdwl   =      -277.1537 
E_coul   =        -3.0238 E_long   =         0.0000 Press    =       -16.5222 
---------------- Step     4000 ----- CPU =      0.9368 (sec) ----------------
TotEng   =      -220.3681 KinEng   =         9.6282 Temp     =         0.7795 
PotEng   =      -229.9962 E_bond   =        25.8244 E_angle  =        24.5086 
E_dihed  =         0.0000 E_impro  =         1.4508 E_vdwl   =      -278.7613 
E_coul   =        -3.0188 E_long   =         0.0000 Press    =       -15.3037 
---------------- Step     4500 ----- CPU =      1.0459 (sec) ----------------
TotEng   =      -226.4992 KinEng   =         8.8647 Temp     =         0.7176 
PotEng   =      -235.3638 E_bond   =        23.3728 E_angle  =        24.3793 
E_dihed  =         0.0000 E_impro  =         1.7502 E_vdwl   =      -281.8576 
E_coul   =        -3.0086 E_long   =         0.0000 Press    =       -15.0832 
---------------- Step     5000 ----- CPU =      1.1535 (sec) ----------------
TotEng   =      -231.6953 KinEng   =        10.2560 Temp     =         0.8303 
PotEng   =      -241.9514 E_bond   =        20.4014 E_angle  =        23.5672 
E_dihed  =         0.0000 E_impro  =         1.5212 E_vdwl   =      -284.7886 
E_coul   =        -2.6527 E_long   =         0.0000 Press    =       -15.0712 
---------------- Step     5500 ----- CPU =      1.2590 (sec) ----------------
TotEng   =      -234.3689 KinEng   =        11.7380 Temp     =         0.9503 
PotEng   =      -246.1069 E_bond   =        18.7135 E_angle  =        22.7849 
E_dihed  =         0.0000 E_impro  =         1.4052 E_vdwl   =      -286.0093 
E_coul   =        -3.0012 E_long   =         0.0000 Press    =       -15.3077 
---------------- Step     6000 ----- CPU =      1.3671 (sec) ----------------
TotEng   =      -238.5882 KinEng   =        12.0491 Temp     =         0.9754 
PotEng   =      -250.6372 E_bond   =        17.6484 E_angle  =        22.0857 
E_dihed  =         0.0000 E_impro  =         1.5569 E_vdwl   =      -288.5809 
E_coul   =        -3.3473 E_long   =         0.0000 Press    =       -15.5772 
---------------- Step     6500 ----- CPU =      1.4734 (sec) ----------------
TotEng   =      -241.7928 KinEng   =        11.3709 Temp     =         0.9205 
PotEng   =      -253.1637 E_bond   =        18.4375 E_angle  =        22.0832 
E_dihed  =         0.0000 E_impro  =         1.4834 E_vdwl   =      -292.1743 
E_coul   =        -2.9934 E_long   =         0.0000 Press    =       -15.8544 
---------------- Step     7000 ----- CPU =      1.5830 (sec) ----------------
TotEng   =      -241.5890 KinEng   =        12.9774 Temp     =         1.0506 
PotEng   =      -254.5664 E_bond   =        18.8954 E_angle  =        21.5304 
E_dihed  =         0.0000 E_impro  =         1.7152 E_vdwl   =      -293.6877 
E_coul   =        -3.0197 E_long   =         0.0000 Press    =       -15.3276 
---------------- Step     7500 ----- CPU =      1.6911 (sec) ----------------
TotEng   =      -242.5465 KinEng   =        15.0736 Temp     =         1.2203 
PotEng   =      -257.6201 E_bond   =        18.0131 E_angle  =        20.5115 
E_dihed  =         0.0000 E_impro  =         1.5711 E_vdwl   =      -295.3670 
E_coul   =        -2.3487 E_long   =         0.0000 Press    =       -14.7856 
---------------- Step     8000 ----- CPU =      1.8000 (sec) ----------------
TotEng   =      -243.7410 KinEng   =        14.8669 Temp     =         1.2036 
PotEng   =      -258.6079 E_bond   =        18.9656 E_angle  =        19.1903 
E_dihed  =         0.0000 E_impro  =         1.7562 E_vdwl   =      -296.1426 
E_coul   =        -2.3775 E_long   =         0.0000 Press    =       -14.8894 
---------------- Step     8500 ----- CPU =      1.9070 (sec) ----------------
TotEng   =      -245.1643 KinEng   =        15.5799 Temp     =         1.2613 
PotEng   =      -260.7442 E_bond   =        17.4833 E_angle  =        18.4499 
E_dihed  =         0.0000 E_impro  =         1.0034 E_vdwl   =      -295.3619 
E_coul   =        -2.3190 E_long   =         0.0000 Press    =       -13.2870 
---------------- Step     9000 ----- CPU =      2.0171 (sec) ----------------
TotEng   =      -246.1275 KinEng   =        18.7991 Temp     =         1.5219 
PotEng   =      -264.9266 E_bond   =        16.3800 E_angle  =        17.9855 
E_dihed  =         0.0000 E_impro  =         1.8254 E_vdwl   =      -298.8147 
E_coul   =        -2.3028 E_long   =         0.0000 Press    =       -14.9614 
---------------- Step     9500 ----- CPU =      2.1269 (sec) ----------------
TotEng   =      -249.4633 KinEng   =        17.5605 Temp     =         1.4216 
PotEng   =      -267.0239 E_bond   =        15.8622 E_angle  =        17.7398 
E_dihed  =         0.0000 E_impro  =         1.6567 E_vdwl   =      -299.9675 
E_coul   =        -2.3151 E_long   =         0.0000 Press    =       -14.8306 
---------------- Step    10000 ----- CPU =      2.2365 (sec) ----------------
TotEng   =      -245.9170 KinEng   =        19.4633 Temp     =         1.5757 
PotEng   =      -265.3803 E_bond   =        19.8234 E_angle  =        17.3577 
E_dihed  =         0.0000 E_impro  =         1.8906 E_vdwl   =      -302.1139 
E_coul   =        -2.3382 E_long   =         0.0000 Press    =       -16.4554 
---------------- Step    10500 ----- CPU =      2.3439 (sec) ----------------
TotEng   =      -247.4673 KinEng   =        21.9700 Temp     =         1.7786 
PotEng   =      -269.4373 E_bond   =        17.7911 E_angle  =        17.4772 
E_dihed  =         0.0000 E_impro  =         1.6856 E_vdwl   =      -304.0516 
E_coul   =        -2.3396 E_long   =         0.0000 Press    =       -15.4326 
---------------- Step    11000 ----- CPU =      2.4549 (sec) ----------------
TotEng   =      -249.8989 KinEng   =        21.3914 Temp     =         1.7317 
PotEng   =      -271.2903 E_bond   =        20.1881 E_angle  =        16.4575 
E_dihed  =         0.0000 E_impro  =         1.3328 E_vdwl   =      -306.8212 
E_coul   =        -2.4475 E_long   =         0.0000 Press    =       -14.2240 
---------------- Step    11500 ----- CPU =      2.5628 (sec) ----------------
TotEng   =      -254.5851 KinEng   =        20.6701 Temp     =         1.6734 
PotEng   =      -275.2551 E_bond   =        18.1139 E_angle  =        16.4945 
E_dihed  =         0.0000 E_impro  =         1.4520 E_vdwl   =      -308.5099 
E_coul   =        -2.8057 E_long   =         0.0000 Press    =       -13.8817 
---------------- Step    12000 ----- CPU =      2.6716 (sec) ----------------
TotEng   =      -250.8406 KinEng   =        24.6733 Temp     =         1.9974 
PotEng   =      -275.5139 E_bond   =        19.4887 E_angle  =        17.1299 
E_dihed  =         0.0000 E_impro  =         1.5303 E_vdwl   =      -311.2087 
E_coul   =        -2.4541 E_long   =         0.0000 Press    =       -14.0762 
---------------- Step    12500 ----- CPU =      2.7848 (sec) ----------------
TotEng   =      -249.5307 KinEng   =        25.8427 Temp     =         2.0921 
PotEng   =      -275.3734 E_bond   =        21.8985 E_angle  =        17.7082 
E_dihed  =         0.0000 E_impro  =         1.3996 E_vdwl   =      -313.8998 
E_coul   =        -2.4798 E_long   =         0.0000 Press    =       -14.2896 
---------------- Step    13000 ----- CPU =      2.8944 (sec) ----------------
TotEng   =      -252.7600 KinEng   =        27.7191 Temp     =         2.2440 
PotEng   =      -280.4791 E_bond   =        19.5898 E_angle  =        17.4023 
E_dihed  =         0.0000 E_impro  =         1.0433 E_vdwl   =      -315.9897 
E_coul   =        -2.5248 E_long   =         0.0000 Press    =       -14.5761 
---------------- Step    13500 ----- CPU =      3.0030 (sec) ----------------
TotEng   =      -248.2176 KinEng   =        31.1519 Temp     =         2.5219 
PotEng   =      -279.3695 E_bond   =        19.0557 E_angle  =        17.5884 
E_dihed  =         0.0000 E_impro  =         0.6354 E_vdwl   =      -314.0901 
E_coul   =        -2.5589 E_long   =         0.0000 Press    =       -12.9359 
---------------- Step    14000 ----- CPU =      3.1137 (sec) ----------------
TotEng   =      -248.9919 KinEng   =        33.6419 Temp     =         2.7235 
PotEng   =      -282.6337 E_bond   =        19.2513 E_angle  =        18.6783 
E_dihed  =         0.0000 E_impro  =         0.7808 E_vdwl   =      -318.7834 
E_coul   =        -2.5607 E_long   =         0.0000 Press    =       -14.1394 
---------------- Step    14500 ----- CPU =      3.2248 (sec) ----------------
TotEng   =      -248.1683 KinEng   =        35.6761 Temp     =         2.8882 
PotEng   =      -283.8444 E_bond   =        17.7820 E_angle  =        19.0099 
E_dihed  =         0.0000 E_impro  =         1.0717 E_vdwl   =      -319.1367 
E_coul   =        -2.5713 E_long   =         0.0000 Press    =       -12.9890 
---------------- Step    15000 ----- CPU =      3.3340 (sec) ----------------
TotEng   =      -250.5167 KinEng   =        36.1688 Temp     =         2.9281 
PotEng   =      -286.6855 E_bond   =        19.2190 E_angle  =        18.1575 
E_dihed  =         0.0000 E_impro  =         1.2241 E_vdwl   =      -322.7041 
E_coul   =        -2.5821 E_long   =         0.0000 Press    =       -13.8995 
---------------- Step    15500 ----- CPU =      3.4474 (sec) ----------------
TotEng   =      -247.8654 KinEng   =        39.5532 Temp     =         3.2020 
PotEng   =      -287.4185 E_bond   =        20.4127 E_angle  =        18.2183 
E_dihed  =         0.0000 E_impro  =         1.3668 E_vdwl   =      -324.7560 
E_coul   =        -2.6602 E_long   =         0.0000 Press    =       -11.3523 
---------------- Step    16000 ----- CPU =      3.5639 (sec) ----------------
TotEng   =      -246.3926 KinEng   =        41.8953 Temp     =         3.3917 
PotEng   =      -288.2879 E_bond   =        21.7454 E_angle  =        17.3499 
E_dihed  =         0.0000 E_impro  =         1.4860 E_vdwl   =      -326.2302 
E_coul   =        -2.6391 E_long   =         0.0000 Press    =       -12.6317 
---------------- Step    16500 ----- CPU =      3.6758 (sec) ----------------
TotEng   =      -244.3842 KinEng   =        46.3908 Temp     =         3.7556 
PotEng   =      -290.7751 E_bond   =        20.4337 E_angle  =        18.6087 
E_dihed  =         0.0000 E_impro  =         1.8759 E_vdwl   =      -328.6910 
E_coul   =        -3.0024 E_long   =         0.0000 Press    =       -12.8578 
---------------- Step    17000 ----- CPU =      3.7885 (sec) ----------------
TotEng   =      -234.1317 KinEng   =        52.8057 Temp     =         4.2749 
PotEng   =      -286.9374 E_bond   =        23.7040 E_angle  =        20.3644 
E_dihed  =         0.0000 E_impro  =         1.4021 E_vdwl   =      -329.8409 
E_coul   =        -2.5669 E_long   =         0.0000 Press    =       -11.9331 
---------------- Step    17500 ----- CPU =      3.9011 (sec) ----------------
TotEng   =      -226.9532 KinEng   =        57.1731 Temp     =         4.6285 
PotEng   =      -284.1263 E_bond   =        26.0845 E_angle  =        20.9079 
E_dihed  =         0.0000 E_impro  =         1.6206 E_vdwl   =      -330.2344 
E_coul   =        -2.5048 E_long   =         0.0000 Press    =       -12.1311 
---------------- Step    18000 ----- CPU =      4.0175 (sec) ----------------
TotEng   =      -220.4385 KinEng   =        65.3669 Temp     =         5.2918 
PotEng   =      -285.8054 E_bond   =        27.0456 E_angle  =        20.5309 
E_dihed  =         0.0000 E_impro  =         1.1710 E_vdwl   =      -331.3122 
E_coul   =        -3.2407 E_long   =         0.0000 Press    =       -13.7257 
---------------- Step    18500 ----- CPU =      4.1328 (sec) ----------------
TotEng   =      -225.1678 KinEng   =        66.0847 Temp     =         5.3499 
PotEng   =      -291.2525 E_bond   =        24.0675 E_angle  =        22.5476 
E_dihed  =         0.0000 E_impro  =         1.4105 E_vdwl   =      -336.3884 
E_coul   =        -2.8897 E_long   =         0.0000 Press    =       -13.1916 
---------------- Step    19000 ----- CPU =      4.2544 (sec) ----------------
TotEng   =      -214.1149 KinEng   =        71.5737 Temp     =         5.7943 
PotEng   =      -285.6885 E_bond   =        27.8200 E_angle  =        22.0305 
E_dihed  =         0.0000 E_impro  =         0.8866 E_vdwl   =      -333.5439 
E_coul   =        -2.8817 E_long   =         0.0000 Press    =        -9.9253 
---------------- Step    19500 ----- CPU =      4.3711 (sec) ----------------
TotEng   =      -212.6696 KinEng   =        73.6565 Temp     =         5.9629 
PotEng   =      -286.3261 E_bond   =        30.4419 E_angle  =        26.4476 
E_dihed  =         0.0000 E_impro  =         1.4894 E_vdwl   =      -341.6885 
E_coul   =        -3.0165 E_long   =         0.0000 Press    =       -14.5176 
---------------- Step    20000 ----- CPU =      4.4877 (sec) ----------------
TotEng   =      -202.3222 KinEng   =        87.0313 Temp     =         7.0457 
PotEng   =      -289.3535 E_bond   =        31.5481 E_angle  =        25.0029 
E_dihed  =         0.0000 E_impro  =         1.8353 E_vdwl   =      -344.3675 
E_coul   =        -3.3722 E_long   =         0.0000 Press    =       -10.2793 
---------------- Step    20500 ----- CPU =      4.6081 (sec) ----------------
TotEng   =      -203.5867 KinEng   =        91.0923 Temp     =         7.3744 
PotEng   =      -294.6790 E_bond   =        30.6119 E_angle  =        23.2884 
E_dihed  =         0.0000 E_impro  =         4.7056 E_vdwl   =      -349.5095 
E_coul   =        -3.7755 E_long   =         0.0000 Press    =       -10.0170 
---------------- Step    21000 ----- CPU =      4.7297 (sec) ----------------
TotEng   =      -201.5329 KinEng   =        94.6786 Temp     =         7.6647 
PotEng   =      -296.2115 E_bond   =        30.8435 E_angle  =        23.5656 
E_dihed  =         0.0000 E_impro  =         1.3712 E_vdwl   =      -348.2363 
E_coul   =        -3.7555 E_long   =         0.0000 Press    =       -10.8013 
---------------- Step    21500 ----- CPU =      4.8503 (sec) ----------------
TotEng   =      -181.6610 KinEng   =       100.7683 Temp     =         8.1577 
PotEng   =      -282.4294 E_bond   =        38.1825 E_angle  =        26.6462 
E_dihed  =         0.0000 E_impro  =         1.9855 E_vdwl   =      -345.6093 
E_coul   =        -3.6342 E_long   =         0.0000 Press    =        -8.5448 
---------------- Step    22000 ----- CPU =      4.9759 (sec) ----------------
TotEng   =      -188.2070 KinEng   =        95.3277 Temp     =         7.7173 
PotEng   =      -283.5346 E_bond   =        34.9885 E_angle  =        25.6356 
E_dihed  =         0.0000 E_impro  =         1.5157 E_vdwl   =      -342.7367 
E_coul   =        -2.9378 E_long   =         0.0000 Press    =        -9.3002 
---------------- Step    22500 ----- CPU =      5.1073 (sec) ----------------
TotEng   =      -177.7649 KinEng   =       102.1545 Temp     =         8.2700 
PotEng   =      -279.9194 E_bond   =        45.1500 E_angle  =        26.1020 
E_dihed  =         0.0000 E_impro  =         2.0055 E_vdwl   =      -349.6997 
E_coul   =        -3.4773 E_long   =         0.0000 Press    =        -7.9089 
---------------- Step    23000 ----- CPU =      5.2344 (sec) ----------------
TotEng   =      -145.1096 KinEng   =       131.1729 Temp     =        10.6192 
PotEng   =      -276.2825 E_bond   =        52.2721 E_angle  =        29.9759 
E_dihed  =         0.0000 E_impro  =         1.9307 E_vdwl   =      -356.5622 
E_coul   =        -3.8989 E_long   =         0.0000 Press    =       -10.4050 
---------------- Step    23500 ----- CPU =      5.3613 (sec) ----------------
TotEng   =      -177.0714 KinEng   =       111.7386 Temp     =         9.0458 
PotEng   =      -288.8100 E_bond   =        46.8508 E_angle  =        26.3622 
E_dihed  =         0.0000 E_impro  =         1.4162 E_vdwl   =      -359.4438 
E_coul   =        -3.9954 E_long   =         0.0000 Press    =       -11.5152 
---------------- Step    24000 ----- CPU =      5.4893 (sec) ----------------
TotEng   =      -144.5008 KinEng   =       120.2967 Temp     =         9.7387 
PotEng   =      -264.7975 E_bond   =        65.3870 E_angle  =        28.1927 
E_dihed  =         0.0000 E_impro  =         1.9370 E_vdwl   =      -357.3187 
E_coul   =        -2.9955 E_long   =         0.0000 Press    =        -9.7562 
---------------- Step    24500 ----- CPU =      5.6199 (sec) ----------------
TotEng   =      -170.1278 KinEng   =       129.2346 Temp     =        10.4622 
PotEng   =      -299.3625 E_bond   =        44.8501 E_angle  =        30.0011 
E_dihed  =         0.0000 E_impro  =         1.4684 E_vdwl   =      -372.1071 
E_coul   =        -3.5749 E_long   =         0.0000 Press    =        -7.6852 
---------------- Step    25000 ----- CPU =      5.7528 (sec) ----------------
TotEng   =      -166.6237 KinEng   =       142.6901 Temp     =        11.5515 
PotEng   =      -309.3138 E_bond   =        38.5405 E_angle  =        28.9929 
E_dihed  =         0.0000 E_impro  =         1.3820 E_vdwl   =      -375.3956 
E_coul   =        -2.8336 E_long   =         0.0000 Press    =        -6.8921 
---------------- Step    25500 ----- CPU =      5.8852 (sec) ----------------
TotEng   =      -168.7817 KinEng   =       132.0345 Temp     =        10.6889 
PotEng   =      -300.8162 E_bond   =        42.8297 E_angle  =        31.5833 
E_dihed  =         0.0000 E_impro  =         0.9675 E_vdwl   =      -373.3261 
E_coul   =        -2.8705 E_long   =         0.0000 Press    =        -8.8208 
---------------- Step    26000 ----- CPU =      6.0271 (sec) ----------------
TotEng   =      -167.5553 KinEng   =       138.7581 Temp     =        11.2332 
PotEng   =      -306.3134 E_bond   =        45.2316 E_angle  =        32.0635 
E_dihed  =         0.0000 E_impro  =         0.8237 E_vdwl   =      -380.4143 
E_coul   =        -4.0180 E_long   =         0.0000 Press    =        -5.9998 
---------------- Step    26500 ----- CPU =      6.1601 (sec) ----------------
TotEng   =      -181.9840 KinEng   =       145.4893 Temp     =        11.7781 
PotEng   =      -327.4733 E_bond   =        42.8079 E_angle  =        30.9384 
E_dihed  =         0.0000 E_impro  =         0.7446 E_vdwl   =      -398.2743 
E_coul   =        -3.6898 E_long   =         0.0000 Press    =        -4.4783 
---------------- Step    27000 ----- CPU =      6.2981 (sec) ----------------
TotEng   =      -181.1166 KinEng   =       128.2586 Temp     =        10.3832 
PotEng   =      -309.3752 E_bond   =        48.6183 E_angle  =        34.5229 
E_dihed  =         0.0000 E_impro  =         2.5275 E_vdwl   =      -391.2532 
E_coul   =        -3.7908 E_long   =         0.0000 Press    =        -1.6355 
---------------- Step    27500 ----- CPU =      6.4332 (sec) ----------------
TotEng   =      -167.1871 KinEng   =       152.0619 Temp     =        12.3102 
PotEng   =      -319.2489 E_bond   =        52.4369 E_angle  =        32.1514 
E_dihed  =         0.0000 E_impro  =         2.3234 E_vdwl   =      -403.0656 
E_coul   =        -3.0950 E_long   =         0.0000 Press    =        -7.7232 
---------------- Step    28000 ----- CPU =      6.5650 (sec) ----------------
TotEng   =      -192.6782 KinEng   =       132.6737 Temp     =        10.7407 
PotEng   =      -325.3519 E_bond   =        45.3398 E_angle  =        31.6824 
E_dihed  =         0.0000 E_impro  =         2.4467 E_vdwl   =      -401.6624 
E_coul   =        -3.1584 E_long   =         0.0000 Press    =        -7.8704 
---------------- Step    28500 ----- CPU =      6.7055 (sec) ----------------
TotEng   =      -198.6838 KinEng   =       140.4632 Temp     =        11.3713 
PotEng   =      -339.1470 E_bond   =        43.4384 E_angle  =        28.9847 
E_dihed  =         0.0000 E_impro  =         2.2409 E_vdwl   =      -410.3058 
E_coul   =        -3.5053 E_long   =         0.0000 Press    =        -7.5488 
---------------- Step    29000 ----- CPU =      6.8422 (sec) ----------------
TotEng   =      -212.8818 KinEng   =       127.5838 Temp     =        10.3286 
PotEng   =      -340.4656 E_bond   =        43.2237 E_angle  =        34.3164 
E_dihed  =         0.0000 E_impro  =         1.8701 E_vdwl   =      -415.4069 
E_coul   =        -4.4689 E_long   =         0.0000 Press    =        -7.6423 
---------------- Step    29500 ----- CPU =      6.9801 (sec) ----------------
TotEng   =      -201.2965 KinEng   =       136.8004 Temp     =        11.0747 
PotEng   =      -338.0969 E_bond   =        45.2593 E_angle  =        32.4251 
E_dihed  =         0.0000 E_impro  =         2.0055 E_vdwl   =      -413.5211 
E_coul   =        -4.2658 E_long   =         0.0000 Press    =        -9.4924 
---------------- Step    30000 ----- CPU =      7.1174 (sec) ----------------
TotEng   =      -196.2860 KinEng   =       134.0908 Temp     =        10.8554 
PotEng   =      -330.3768 E_bond   =        51.9356 E_angle  =        31.4131 
E_dihed  =         0.0000 E_impro  =         0.7970 E_vdwl   =      -409.9780 
E_coul   =        -4.5445 E_long   =         0.0000 Press    =       -10.8890 
---------------- Step    30500 ----- CPU =      7.2572 (sec) ----------------
TotEng   =      -175.0784 KinEng   =       140.1844 Temp     =        11.3487 
PotEng   =      -315.2628 E_bond   =        54.8471 E_angle  =        36.7346 
E_dihed  =         0.0000 E_impro  =         1.9866 E_vdwl   =      -403.3239 
E_coul   =        -5.5072 E_long   =         0.0000 Press    =        -9.2716 
---------------- Step    31000 ----- CPU =      7.3920 (sec) ----------------
TotEng   =      -186.1082 KinEng   =       138.8230 Temp     =        11.2385 
PotEng   =      -324.9312 E_bond   =        41.8136 E_angle  =        34.9190 
E_dihed  =         0.0000 E_impro  =         0.9396 E_vdwl   =      -397.9881 
E_coul   =        -4.6153 E_long   =         0.0000 Press    =        -3.2789 
---------------- Step    31500 ----- CPU =      7.5279 (sec) ----------------
TotEng   =      -188.1063 KinEng   =       147.9998 Temp     =        11.9814 
PotEng   =      -336.1061 E_bond   =        41.2180 E_angle  =        34.3705 
E_dihed  =         0.0000 E_impro  =         3.6049 E_vdwl   =      -410.6670 
E_coul   =        -4.6325 E_long   =         0.0000 Press    =        -5.7432 
---------------- Step    32000 ----- CPU =      7.6655 (sec) ----------------
TotEng   =      -212.3411 KinEng   =       131.3649 Temp     =        10.6347 
PotEng   =      -343.7059 E_bond   =        41.2414 E_angle  =        32.4656 
E_dihed  =         0.0000 E_impro  =         1.9080 E_vdwl   =      -413.8649 
E_coul   =        -5.4561 E_long   =         0.0000 Press    =        -7.3660 
---------------- Step    32500 ----- CPU =      7.8059 (sec) ----------------
TotEng   =      -205.3276 KinEng   =       136.3612 Temp     =        11.0392 
PotEng   =      -341.6887 E_bond   =        48.7663 E_angle  =        29.4473 
E_dihed  =         0.0000 E_impro  =         1.7089 E_vdwl   =      -416.6628 
E_coul   =        -4.9484 E_long   =         0.0000 Press    =        -7.4326 
---------------- Step    33000 ----- CPU =      7.9501 (sec) ----------------
TotEng   =      -188.9295 KinEng   =       145.1332 Temp     =        11.7493 
PotEng   =      -334.0627 E_bond   =        53.4158 E_angle  =        27.7437 
E_dihed  =         0.0000 E_impro  =         4.0188 E_vdwl   =      -413.8362 
E_coul   =        -5.4048 E_long   =         0.0000 Press    =        -6.7185 
---------------- Step    33500 ----- CPU =      8.0923 (sec) ----------------
TotEng   =      -197.4764 KinEng   =       142.3272 Temp     =        11.5222 
PotEng   =      -339.8036 E_bond   =        50.8909 E_angle  =        33.6195 
E_dihed  =         0.0000 E_impro  =         2.5139 E_vdwl   =      -421.9615 
E_coul   =        -4.8664 E_long   =         0.0000 Press    =        -7.9180 
---------------- Step    34000 ----- CPU =      8.2420 (sec) ----------------
TotEng   =      -224.0727 KinEng   =       130.9544 Temp     =        10.6015 
PotEng   =      -355.0271 E_bond   =        40.6678 E_angle  =        29.4664 
E_dihed  =         0.0000 E_impro  =         2.1649 E_vdwl   =      -423.5260 
E_coul   =        -3.8003 E_long   =         0.0000 Press    =        -7.9228 
---------------- Step    34500 ----- CPU =      8.3815 (sec) ----------------
TotEng   =      -194.8993 KinEng   =       142.6130 Temp     =        11.5453 
PotEng   =      -337.5123 E_bond   =        55.9693 E_angle  =        28.1793 
E_dihed  =         0.0000 E_impro  =         3.6560 E_vdwl   =      -420.5234 
E_coul   =        -4.7935 E_long   =         0.0000 Press    =        -3.1317 
---------------- Step    35000 ----- CPU =      8.5200 (sec) ----------------
TotEng   =      -200.4781 KinEng   =       153.4856 Temp     =        12.4255 
PotEng   =      -353.9637 E_bond   =        52.5539 E_angle  =        29.2464 
E_dihed  =         0.0000 E_impro  =         1.8901 E_vdwl   =      -432.3990 
E_coul   =        -5.2551 E_long   =         0.0000 Press    =        -5.5995 
---------------- Step    35500 ----- CPU =      8.6722 (sec) ----------------
TotEng   =      -209.4656 KinEng   =       153.1661 Temp     =        12.3996 
PotEng   =      -362.6317 E_bond   =        51.1267 E_angle  =        30.4130 
E_dihed  =         0.0000 E_impro  =         1.6718 E_vdwl   =      -441.0443 
E_coul   =        -4.7988 E_long   =         0.0000 Press    =        -9.0520 
---------------- Step    36000 ----- CPU =      8.8248 (sec) ----------------
TotEng   =      -215.9496 KinEng   =       145.8903 Temp     =        11.8106 
PotEng   =      -361.8400 E_bond   =        50.1291 E_angle  =        33.0473 
E_dihed  =         0.0000 E_impro  =         3.1425 E_vdwl   =      -442.9790 
E_coul   =        -5.1798 E_long   =         0.0000 Press    =        -5.3617 
---------------- Step    36500 ----- CPU =      8.9677 (sec) ----------------
TotEng   =      -211.1396 KinEng   =       148.4981 Temp     =        12.0217 
PotEng   =      -359.6377 E_bond   =        50.3102 E_angle  =        33.8119 
E_dihed  =         0.0000 E_impro  =         1.3107 E_vdwl   =      -440.2663 
E_coul   =        -4.8042 E_long   =         0.0000 Press    =        -0.8321 
---------------- Step    37000 ----- CPU =      9.1131 (sec) ----------------
TotEng   =      -234.2414 KinEng   =       133.1798 Temp     =        10.7816 
PotEng   =      -367.4211 E_bond   =        50.9542 E_angle  =        34.2286 
E_dihed  =         0.0000 E_impro  =         0.7276 E_vdwl   =      -448.1977 
E_coul   =        -5.1338 E_long   =         0.0000 Press    =        -7.2847 
---------------- Step    37500 ----- CPU =      9.2613 (sec) ----------------
TotEng   =      -247.6734 KinEng   =       126.0693 Temp     =        10.2060 
PotEng   =      -373.7427 E_bond   =        46.4861 E_angle  =        32.7276 
E_dihed  =         0.0000 E_impro  =         0.5975 E_vdwl   =      -448.4086 
E_coul   =        -5.1453 E_long   =         0.0000 Press    =        -6.6330 
---------------- Step    38000 ----- CPU =      9.4029 (sec) ----------------
TotEng   =      -245.2099 KinEng   =       128.7333 Temp     =        10.4217 
PotEng   =      -373.9432 E_bond   =        43.3504 E_angle  =        37.2855 
E_dihed  =         0.0000 E_impro  =         2.1815 E_vdwl   =      -451.7111 
E_coul   =        -5.0494 E_long   =         0.0000 Press    =        -1.9211 
---------------- Step    38500 ----- CPU =      9.5478 (sec) ----------------
TotEng   =      -213.3617 KinEng   =       150.2538 Temp     =        12.1639 
PotEng   =      -363.6155 E_bond   =        52.1133 E_angle  =        35.1809 
E_dihed  =         0.0000 E_impro  =         2.5210 E_vdwl   =      -448.5220 
E_coul   =        -4.9087 E_long   =         0.0000 Press    =        -5.8068 
---------------- Step    39000 ----- CPU =      9.6981 (sec) ----------------
TotEng   =      -232.1675 KinEng   =       134.9408 Temp     =        10.9242 
PotEng   =      -367.1083 E_bond   =        47.2620 E_angle  =        36.6469 
E_dihed  =         0.0000 E_impro  =         3.4010 E_vdwl   =      -449.1541 
E_coul   =        -5.2641 E_long   =         0.0000 Press    =        -4.2793 
---------------- Step    39500 ----- CPU =      9.8419 (sec) ----------------
TotEng   =      -232.9936 KinEng   =       141.8982 Temp     =        11.4874 
PotEng   =      -374.8917 E_bond   =        46.1244 E_angle  =        32.2800 
E_dihed  =         0.0000 E_impro  =         2.0773 E_vdwl   =      -449.8033 
E_coul   =        -5.5701 E_long   =         0.0000 Press    =        -4.2345 
---------------- Step    40000 ----- CPU =      9.9830 (sec) ----------------
TotEng   =      -209.8241 KinEng   =       152.7350 Temp     =        12.3647 
PotEng   =      -362.5590 E_bond   =        57.2131 E_angle  =        37.6433 
E_dihed  =         0.0000 E_impro  =         1.0552 E_vdwl   =      -453.7716 
E_coul   =        -4.6990 E_long   =         0.0000 Press    =        -4.9709 
---------------- Step    40500 ----- CPU =     10.1315 (sec) ----------------
TotEng   =      -230.8560 KinEng   =       145.1503 Temp     =        11.7507 
PotEng   =      -376.0063 E_bond   =        45.3434 E_angle  =        35.9176 
E_dihed  =         0.0000 E_impro  =         1.7231 E_vdwl   =      -454.1410 
E_coul   =        -4.8494 E_long   =         0.0000 Press    =        -5.0778 
---------------- Step    41000 ----- CPU =     10.2751 (sec) ----------------
TotEng   =      -215.2959 KinEng   =       154.4411 Temp     =        12.5028 
PotEng   =      -369.7370 E_bond   =        47.0042 E_angle  =        38.9629 
E_dihed  =         0.0000 E_impro  =         0.9363 E_vdwl   =      -451.6452 
E_coul   =        -4.9953 E_long   =         0.0000 Press    =        -4.7366 
---------------- Step    41500 ----- CPU =     10.4193 (sec) ----------------
TotEng   =      -229.4296 KinEng   =       142.7703 Temp     =        11.5580 
PotEng   =      -372.1999 E_bond   =        50.5674 E_angle  =        32.5882 
E_dihed  =         0.0000 E_impro  =         0.8826 E_vdwl   =      -451.0792 
E_coul   =        -5.1590 E_long   =         0.0000 Press    =        -8.9751 
---------------- Step    42000 ----- CPU =     10.5628 (sec) ----------------
TotEng   =      -254.1800 KinEng   =       126.8140 Temp     =        10.2663 
PotEng   =      -380.9940 E_bond   =        44.3543 E_angle  =        30.5969 
E_dihed  =         0.0000 E_impro  =         2.9813 E_vdwl   =      -453.7888 
E_coul   =        -5.1377 E_long   =         0.0000 Press    =        -7.8834 
---------------- Step    42500 ----- CPU =     10.7045 (sec) ----------------
TotEng   =      -233.2218 KinEng   =       143.0464 Temp     =        11.5804 
PotEng   =      -376.2682 E_bond   =        50.8625 E_angle  =        31.7531 
E_dihed  =         0.0000 E_impro  =         2.6003 E_vdwl   =      -455.9403 
E_coul   =        -5.5437 E_long   =         0.0000 Press    =        -5.6199 
---------------- Step    43000 ----- CPU =     10.8488 (sec) ----------------
TotEng   =      -246.3078 KinEng   =       145.3868 Temp     =        11.7698 
PotEng   =      -391.6946 E_bond   =        46.4531 E_angle  =        35.8622 
E_dihed  =         0.0000 E_impro  =         4.7826 E_vdwl   =      -473.3826 
E_coul   =        -5.4099 E_long   =         0.0000 Press    =        -7.1222 
---------------- Step    43500 ----- CPU =     10.9917 (sec) ----------------
TotEng   =      -257.3766 KinEng   =       124.2099 Temp     =        10.0555 
PotEng   =      -381.5865 E_bond   =        42.4466 E_angle  =        36.5932 
E_dihed  =         0.0000 E_impro  =         1.7272 E_vdwl   =      -456.1121 
E_coul   =        -6.2414 E_long   =         0.0000 Press    =        -3.6841 
---------------- Step    44000 ----- CPU =     11.1354 (sec) ----------------
TotEng   =      -211.9828 KinEng   =       175.2763 Temp     =        14.1896 
PotEng   =      -387.2591 E_bond   =        46.8589 E_angle  =        35.8159 
E_dihed  =         0.0000 E_impro  =         0.9167 E_vdwl   =      -465.8502 
E_coul   =        -5.0004 E_long   =         0.0000 Press    =        -9.1732 
---------------- Step    44500 ----- CPU =     11.2822 (sec) ----------------
TotEng   =      -243.6750 KinEng   =       137.2672 Temp     =        11.1125 
PotEng   =      -380.9422 E_bond   =        49.1514 E_angle  =        34.7750 
E_dihed  =         0.0000 E_impro  =         2.8109 E_vdwl   =      -462.6510 
E_coul   =        -5.0285 E_long   =         0.0000 Press    =        -6.1257 
---------------- Step    45000 ----- CPU =     11.4255 (sec) ----------------
TotEng   =      -239.9076 KinEng   =       145.8390 Temp     =        11.8065 
PotEng   =      -385.7466 E_bond   =        49.0688 E_angle  =        36.6952 
E_dihed  =         0.0000 E_impro  =         3.4459 E_vdwl   =      -469.1413 
E_coul   =        -5.8151 E_long   =         0.0000 Press    =        -4.3212 
---------------- Step    45500 ----- CPU =     11.5703 (sec) ----------------
TotEng   =      -255.8699 KinEng   =       142.1271 Temp     =        11.5060 
PotEng   =      -397.9971 E_bond   =        43.4302 E_angle  =        35.3566 
E_dihed  =         0.0000 E_impro  =         2.0057 E_vdwl   =      -473.4241 
E_coul   =        -5.3655 E_long   =         0.0000 Press    =       -10.9522 
---------------- Step    46000 ----- CPU =     11.7108 (sec) ----------------
TotEng   =      -237.1509 KinEng   =       159.3851 Temp     =        12.9031 
PotEng   =      -396.5360 E_bond   =        42.9483 E_angle  =        37.5492 
E_dihed  =         0.0000 E_impro  =         1.2953 E_vdwl   =      -471.8697 
E_coul   =        -6.4592 E_long   =         0.0000 Press    =        -5.1872 
---------------- Step    46500 ----- CPU =     11.8581 (sec) ----------------
TotEng   =      -260.9560 KinEng   =       136.3029 Temp     =        11.0345 
PotEng   =      -397.2588 E_bond   =        43.6267 E_angle  =        35.7474 
E_dihed  =         0.0000 E_impro  =         1.6467 E_vdwl   =      -472.9444 
E_coul   =        -5.3353 E_long   =         0.0000 Press    =        -6.6811 
---------------- Step    47000 ----- CPU =     12.0109 (sec) ----------------
TotEng   =      -236.4560 KinEng   =       149.8732 Temp     =        12.1330 
PotEng   =      -386.3292 E_bond   =        48.4802 E_angle  =        35.3929 
E_dihed  =         0.0000 E_impro  =         1.8147 E_vdwl   =      -465.9147 
E_coul   =        -6.1023 E_long   =         0.0000 Press    =        -7.9595 
---------------- Step    47500 ----- CPU =     12.1570 (sec) ----------------
TotEng   =      -252.9411 KinEng   =       134.7019 Temp     =        10.9049 
PotEng   =      -387.6430 E_bond   =        48.3000 E_angle  =        36.5844 
E_dihed  =         0.0000 E_impro  =         3.5266 E_vdwl   =      -470.0927 
E_coul   =        -5.9614 E_long   =         0.0000 Press    =        -6.1433 
---------------- Step    48000 ----- CPU =     12.3062 (sec) ----------------
TotEng   =      -258.1224 KinEng   =       137.0839 Temp     =        11.0977 
PotEng   =      -395.2063 E_bond   =        47.5210 E_angle  =        41.2328 
E_dihed  =         0.0000 E_impro  =         1.8984 E_vdwl   =      -480.5405 
E_coul   =        -5.3180 E_long   =         0.0000 Press    =        -8.0369 
---------------- Step    48500 ----- CPU =     12.4542 (sec) ----------------
TotEng   =      -245.9524 KinEng   =       150.3917 Temp     =        12.1750 
PotEng   =      -396.3441 E_bond   =        51.1183 E_angle  =        37.3507 
E_dihed  =         0.0000 E_impro  =         1.3590 E_vdwl   =      -480.2135 
E_coul   =        -5.9586 E_long   =         0.0000 Press    =        -6.8786 
---------------- Step    49000 ----- CPU =     12.6029 (sec) ----------------
TotEng   =      -245.1475 KinEng   =       154.6150 Temp     =        12.5169 
PotEng   =      -399.7624 E_bond   =        52.9818 E_angle  =        38.4683 
E_dihed  =         0.0000 E_impro  =         1.8660 E_vdwl   =      -487.1375 
E_coul   =        -5.9411 E_long   =         0.0000 Press    =        -9.3305 
---------------- Step    49500 ----- CPU =     12.7483 (sec) ----------------
TotEng   =      -268.4964 KinEng   =       140.7871 Temp     =        11.3975 
PotEng   =      -409.2835 E_bond   =        50.1613 E_angle  =        37.2097 
E_dihed  =         0.0000 E_impro  =         1.2716 E_vdwl   =      -491.7337 
E_coul   =        -6.1924 E_long   =         0.0000 Press    =        -6.7941 
---------------- Step    50000 ----- CPU =     12.9001 (sec) ----------------
TotEng   =      -274.5394 KinEng   =       159.3572 Temp     =        12.9008 
PotEng   =      -433.8966 E_bond   =        35.8448 E_angle  =        36.4924 
E_dihed  =         0.0000 E_impro  =         0.9816 E_vdwl   =      -501.1010 
E_coul   =        -6.1143 E_long   =         0.0000 Press    =        -4.6407 
---------------- Step    50500 ----- CPU =     13.0463 (sec) ----------------
TotEng   =      -280.2048 KinEng   =       146.1666 Temp     =        11.8330 
PotEng   =      -426.3714 E_bond   =        41.9368 E_angle  =        39.2754 
E_dihed  =         0.0000 E_impro  =         2.2634 E_vdwl   =      -503.8869 
E_coul   =        -5.9601 E_long   =         0.0000 Press    =        -5.0204 
---------------- Step    51000 ----- CPU =     13.1966 (sec) ----------------
TotEng   =      -289.5622 KinEng   =       137.2140 Temp     =        11.1082 
PotEng   =      -426.7762 E_bond   =        43.7631 E_angle  =        35.0396 
E_dihed  =         0.0000 E_impro  =         2.7038 E_vdwl   =      -502.0375 
E_coul   =        -6.2453 E_long   =         0.0000 Press    =        -4.0538 
---------------- Step    51500 ----- CPU =     13.3487 (sec) ----------------
TotEng   =      -301.7985 KinEng   =       129.3269 Temp     =        10.4697 
PotEng   =      -431.1254 E_bond   =        44.7446 E_angle  =        38.2419 
E_dihed  =         0.0000 E_impro  =         2.4071 E_vdwl   =      -510.0012 
E_coul   =        -6.5179 E_long   =         0.0000 Press    =        -2.8771 
---------------- Step    52000 ----- CPU =     13.4976 (sec) ----------------
TotEng   =      -283.9610 KinEng   =       141.6114 Temp     =        11.4642 
PotEng   =      -425.5724 E_bond   =        49.5482 E_angle  =        40.6562 
E_dihed  =         0.0000 E_impro  =         0.5072 E_vdwl   =      -510.1171 
E_coul   =        -6.1669 E_long   =         0.0000 Press    =        -2.0307 
---------------- Step    52500 ----- CPU =     13.6485 (sec) ----------------
TotEng   =      -290.5610 KinEng   =       139.7280 Temp     =        11.3117 
PotEng   =      -430.2890 E_bond   =        47.6634 E_angle  =        37.7106 
E_dihed  =         0.0000 E_impro  =         3.9775 E_vdwl   =      -513.3969 
E_coul   =        -6.2436 E_long   =         0.0000 Press    =         0.2258 
---------------- Step    53000 ----- CPU =     13.8072 (sec) ----------------
TotEng   =      -294.0609 KinEng   =       137.1651 Temp     =        11.1043 
PotEng   =      -431.2260 E_bond   =        52.1409 E_angle  =        35.8640 
E_dihed  =         0.0000 E_impro  =         2.9134 E_vdwl   =      -516.0957 
E_coul   =        -6.0485 E_long   =         0.0000 Press    =        -2.2852 
---------------- Step    53500 ----- CPU =     13.9591 (sec) ----------------
TotEng   =      -295.6414 KinEng   =       152.9398 Temp     =        12.3813 
PotEng   =      -448.5812 E_bond   =        46.5866 E_angle  =        32.6060 
E_dihed  =         0.0000 E_impro  =         1.8016 E_vdwl   =      -523.5450 
E_coul   =        -6.0304 E_long   =         0.0000 Press    =        -4.9358 
---------------- Step    54000 ----- CPU =     14.1151 (sec) ----------------
TotEng   =      -295.9536 KinEng   =       152.2134 Temp     =        12.3225 
PotEng   =      -448.1670 E_bond   =        45.8492 E_angle  =        35.1841 
E_dihed  =         0.0000 E_impro  =         3.4652 E_vdwl   =      -526.8670 
E_coul   =        -5.7984 E_long   =         0.0000 Press    =        -3.5009 
---------------- Step    54500 ----- CPU =     14.2728 (sec) ----------------
TotEng   =      -292.1340 KinEng   =       158.2416 Temp     =        12.8105 
PotEng   =      -450.3756 E_bond   =        41.2833 E_angle  =        35.5895 
E_dihed  =         0.0000 E_impro  =         1.1567 E_vdwl   =      -522.3123 
E_coul   =        -6.0928 E_long   =         0.0000 Press    =        -5.6858 
---------------- Step    55000 ----- CPU =     14.4290 (sec) ----------------
TotEng   =      -314.1236 KinEng   =       129.0808 Temp     =        10.4498 
PotEng   =      -443.2044 E_bond   =        47.3544 E_angle  =        34.9766 
E_dihed  =         0.0000 E_impro  =         2.1693 E_vdwl   =      -521.7788 
E_coul   =        -5.9259 E_long   =         0.0000 Press    =        -8.3460 
---------------- Step    55500 ----- CPU =     14.5862 (sec) ----------------
TotEng   =      -298.9871 KinEng   =       137.6019 Temp     =        11.1396 
PotEng   =      -436.5889 E_bond   =        49.2035 E_angle  =        37.1981 
E_dihed  =         0.0000 E_impro  =         1.8106 E_vdwl   =      -519.0519 
E_coul   =        -5.7492 E_long   =         0.0000 Press    =        -8.6984 
---------------- Step    56000 ----- CPU =     14.7400 (sec) ----------------
TotEng   =      -309.9751 KinEng   =       140.1101 Temp     =        11.3427 
PotEng   =      -450.0853 E_bond   =        45.2276 E_angle  =        35.1059 
E_dihed  =         0.0000 E_impro  =         2.2477 E_vdwl   =      -526.7151 
E_coul   =        -5.9513 E_long   =         0.0000 Press    =        -4.1666 
---------------- Step    56500 ----- CPU =     14.8949 (sec) ----------------
TotEng   =      -307.2515 KinEng   =       134.2697 Temp     =        10.8699 
PotEng   =      -441.5213 E_bond   =        58.2009 E_angle  =        34.4280 
E_dihed  =         0.0000 E_impro  =         1.6753 E_vdwl   =      -529.6862 
E_coul   =        -6.1394 E_long   =         0.0000 Press    =        -2.6395 
---------------- Step    57000 ----- CPU =     15.0487 (sec) ----------------
TotEng   =      -303.5312 KinEng   =       135.4796 Temp     =        10.9678 
PotEng   =      -439.0108 E_bond   =        54.7058 E_angle  =        36.6310 
E_dihed  =         0.0000 E_impro  =         3.4321 E_vdwl   =      -527.7636 
E_coul   =        -6.0162 E_long   =         0.0000 Press    =        -7.2196 
---------------- Step    57500 ----- CPU =     15.2032 (sec) ----------------
TotEng   =      -297.3672 KinEng   =       155.1645 Temp     =        12.5614 
PotEng   =      -452.5316 E_bond   =        42.1313 E_angle  =        38.9798 
E_dihed  =         0.0000 E_impro  =         1.0765 E_vdwl   =      -528.6595 
E_coul   =        -6.0597 E_long   =         0.0000 Press    =        -5.7195 
---------------- Step    58000 ----- CPU =     15.3625 (sec) ----------------
TotEng   =      -310.1091 KinEng   =       145.1385 Temp     =        11.7497 
PotEng   =      -455.2476 E_bond   =        49.8390 E_angle  =        34.6061 
E_dihed  =         0.0000 E_impro  =         1.0191 E_vdwl   =      -534.3467 
E_coul   =        -6.3652 E_long   =         0.0000 Press    =        -5.7425 
---------------- Step    58500 ----- CPU =     15.5161 (sec) ----------------
TotEng   =      -304.5029 KinEng   =       136.8070 Temp     =        11.0753 
PotEng   =      -441.3099 E_bond   =        48.9741 E_angle  =        38.2621 
E_dihed  =         0.0000 E_impro  =         1.1984 E_vdwl   =      -524.2999 
E_coul   =        -5.4445 E_long   =         0.0000 Press    =        -2.1089 
---------------- Step    59000 ----- CPU =     15.6721 (sec) ----------------
TotEng   =      -295.4506 KinEng   =       151.4916 Temp     =        12.2641 
PotEng   =      -446.9422 E_bond   =        46.9495 E_angle  =        37.5492 
E_dihed  =         0.0000 E_impro  =         0.4518 E_vdwl   =      -527.4447 
E_coul   =        -4.4480 E_long   =         0.0000 Press    =        -2.9699 
---------------- Step    59500 ----- CPU =     15.8307 (sec) ----------------
TotEng   =      -308.7462 KinEng   =       139.2326 Temp     =        11.2716 
PotEng   =      -447.9788 E_bond   =        47.3125 E_angle  =        38.9890 
E_dihed  =         0.0000 E_impro  =         1.3310 E_vdwl   =      -531.7788 
E_coul   =        -3.8324 E_long   =         0.0000 Press    =        -7.5295 
---------------- Step    60000 ----- CPU =     15.9861 (sec) ----------------
TotEng   =      -317.2300 KinEng   =       138.1264 Temp     =        11.1821 
PotEng   =      -455.3564 E_bond   =        42.4325 E_angle  =        36.2142 
E_dihed  =         0.0000 E_impro  =         1.4488 E_vdwl   =      -531.6836 
E_coul   =        -3.7682 E_long   =         0.0000 Press    =        -2.9304 
---------------- Step    60500 ----- CPU =     16.1494 (sec) ----------------
TotEng   =      -299.9467 KinEng   =       150.7148 Temp     =        12.2012 
PotEng   =      -450.6615 E_bond   =        44.9900 E_angle  =        38.8719 
E_dihed  =         0.0000 E_impro  =         1.6008 E_vdwl   =      -532.5573 
E_coul   =        -3.5669 E_long   =         0.0000 Press    =        -3.6298 
---------------- Step    61000 ----- CPU =     16.3108 (sec) ----------------
TotEng   =      -295.0576 KinEng   =       150.3537 Temp     =        12.1719 
PotEng   =      -445.4113 E_bond   =        48.1260 E_angle  =        42.2728 
E_dihed  =         0.0000 E_impro  =         2.2154 E_vdwl   =      -533.8546 
E_coul   =        -4.1710 E_long   =         0.0000 Press    =        -1.0052 
---------------- Step    61500 ----- CPU =     16.4676 (sec) ----------------
TotEng   =      -309.8103 KinEng   =       138.1087 Temp     =        11.1807 
PotEng   =      -447.9190 E_bond   =        51.9901 E_angle  =        35.7447 
E_dihed  =         0.0000 E_impro  =         0.8322 E_vdwl   =      -532.6761 
E_coul   =        -3.8099 E_long   =         0.0000 Press    =        -3.3602 
---------------- Step    62000 ----- CPU =     16.6263 (sec) ----------------
TotEng   =      -295.7644 KinEng   =       145.3098 Temp     =        11.7636 
PotEng   =      -441.0743 E_bond   =        44.2114 E_angle  =        37.3111 
E_dihed  =         0.0000 E_impro  =         1.7140 E_vdwl   =      -521.2154 
E_coul   =        -3.0953 E_long   =         0.0000 Press    =        -4.4514 
---------------- Step    62500 ----- CPU =     16.7831 (sec) ----------------
TotEng   =      -306.3289 KinEng   =       133.1641 Temp     =        10.7804 
PotEng   =      -439.4929 E_bond   =        52.6101 E_angle  =        38.3858 
E_dihed  =         0.0000 E_impro  =         3.3037 E_vdwl   =      -530.3443 
E_coul   =        -3.4483 E_long   =         0.0000 Press    =        -4.4711 
---------------- Step    63000 ----- CPU =     16.9425 (sec) ----------------
TotEng   =      -313.9048 KinEng   =       134.6982 Temp     =        10.9045 
PotEng   =      -448.6029 E_bond   =        48.3501 E_angle  =        38.4277 
E_dihed  =         0.0000 E_impro  =         1.4563 E_vdwl   =      -534.6757 
E_coul   =        -2.1613 E_long   =         0.0000 Press    =        -2.4525 
---------------- Step    63500 ----- CPU =     17.1001 (sec) ----------------
TotEng   =      -328.9570 KinEng   =       125.6478 Temp     =        10.1719 
PotEng   =      -454.6048 E_bond   =        43.4844 E_angle  =        41.3740 
E_dihed  =         0.0000 E_impro  =         2.3045 E_vdwl   =      -539.0331 
E_coul   =        -2.7347 E_long   =         0.0000 Press    =        -0.2989 
---------------- Step    64000 ----- CPU =     17.2581 (sec) ----------------
TotEng   =      -328.0085 KinEng   =       135.4420 Temp     =        10.9648 
PotEng   =      -463.4505 E_bond   =        45.4476 E_angle  =        34.9244 
E_dihed  =         0.0000 E_impro  =         2.0714 E_vdwl   =      -543.5334 
E_coul   =        -2.3605 E_long   =         0.0000 Press    =        -2.3195 
---------------- Step    64500 ----- CPU =     17.4168 (sec) ----------------
TotEng   =      -330.1838 KinEng   =       140.0841 Temp     =        11.3406 
PotEng   =      -470.2679 E_bond   =        40.0468 E_angle  =        32.5975 
E_dihed  =         0.0000 E_impro  =         1.1646 E_vdwl   =      -541.2885 
E_coul   =        -2.7882 E_long   =         0.0000 Press    =        -4.3820 
---------------- Step    65000 ----- CPU =     17.5760 (sec) ----------------
TotEng   =      -333.8963 KinEng   =       129.4367 Temp     =        10.4786 
PotEng   =      -463.3330 E_bond   =        42.0199 E_angle  =        39.8633 
E_dihed  =         0.0000 E_impro  =         3.6086 E_vdwl   =      -546.0847 
E_coul   =        -2.7401 E_long   =         0.0000 Press    =        -6.4319 
---------------- Step    65500 ----- CPU =     17.7357 (sec) ----------------
TotEng   =      -325.4836 KinEng   =       133.7893 Temp     =        10.8310 
PotEng   =      -459.2729 E_bond   =        50.6675 E_angle  =        40.5855 
E_dihed  =         0.0000 E_impro  =         2.6240 E_vdwl   =      -550.0795 
E_coul   =        -3.0703 E_long   =         0.0000 Press    =        -5.1259 
---------------- Step    66000 ----- CPU =     17.8966 (sec) ----------------
TotEng   =      -328.4005 KinEng   =       138.2110 Temp     =        11.1889 
PotEng   =      -466.6115 E_bond   =        42.7531 E_angle  =        41.5264 
E_dihed  =         0.0000 E_impro  =         4.0725 E_vdwl   =      -551.9259 
E_coul   =        -3.0376 E_long   =         0.0000 Press    =        -3.7491 
---------------- Step    66500 ----- CPU =     18.0604 (sec) ----------------
TotEng   =      -292.0837 KinEng   =       151.0526 Temp     =        12.2285 
PotEng   =      -443.1363 E_bond   =        60.8844 E_angle  =        40.5757 
E_dihed  =         0.0000 E_impro  =         3.7830 E_vdwl   =      -545.8142 
E_coul   =        -2.5651 E_long   =         0.0000 Press    =        -2.0562 
---------------- Step    67000 ----- CPU =     18.2432 (sec) ----------------
TotEng   =      -326.5861 KinEng   =       145.0932 Temp     =        11.7461 
PotEng   =      -471.6793 E_bond   =        47.9273 E_angle  =        42.8294 
E_dihed  =         0.0000 E_impro  =         2.6381 E_vdwl   =      -563.0670 
E_coul   =        -2.0070 E_long   =         0.0000 Press    =        -8.3968 
---------------- Step    67500 ----- CPU =     18.4050 (sec) ----------------
TotEng   =      -334.4655 KinEng   =       126.2044 Temp     =        10.2169 
PotEng   =      -460.6698 E_bond   =        45.8141 E_angle  =        44.8988 
E_dihed  =         0.0000 E_impro  =         4.3349 E_vdwl   =      -552.7415 
E_coul   =        -2.9762 E_long   =         0.0000 Press    =        -3.0451 
---------------- Step    68000 ----- CPU =     18.5615 (sec) ----------------
TotEng   =      -326.0824 KinEng   =       142.8717 Temp     =        11.5662 
PotEng   =      -468.9541 E_bond   =        38.3108 E_angle  =        40.9012 
E_dihed  =         0.0000 E_impro  =         1.8893 E_vdwl   =      -547.3385 
E_coul   =        -2.7168 E_long   =         0.0000 Press    =        -2.0323 
---------------- Step    68500 ----- CPU =     18.7280 (sec) ----------------
TotEng   =      -340.7779 KinEng   =       145.1568 Temp     =        11.7512 
PotEng   =      -485.9347 E_bond   =        45.5291 E_angle  =        32.8942 
E_dihed  =         0.0000 E_impro  =         1.8634 E_vdwl   =      -563.8337 
E_coul   =        -2.3877 E_long   =         0.0000 Press    =        -6.4591 
---------------- Step    69000 ----- CPU =     18.8838 (sec) ----------------
TotEng   =      -332.3436 KinEng   =       140.9614 Temp     =        11.4116 
PotEng   =      -473.3050 E_bond   =        49.9874 E_angle  =        39.5792 
E_dihed  =         0.0000 E_impro  =         0.6291 E_vdwl   =      -561.3370 
E_coul   =        -2.1637 E_long   =         0.0000 Press    =        -3.8765 
---------------- Step    69500 ----- CPU =     19.0524 (sec) ----------------
TotEng   =      -328.4382 KinEng   =       148.3655 Temp     =        12.0110 
PotEng   =      -476.8037 E_bond   =        40.7020 E_angle  =        34.7134 
E_dihed  =         0.0000 E_impro  =         2.1999 E_vdwl   =      -552.0052 
E_coul   =        -2.4139 E_long   =         0.0000 Press    =         0.4451 
---------------- Step    70000 ----- CPU =     19.2144 (sec) ----------------
TotEng   =      -336.9588 KinEng   =       134.9529 Temp     =        10.9252 
PotEng   =      -471.9117 E_bond   =        45.7187 E_angle  =        38.6939 
E_dihed  =         0.0000 E_impro  =         1.4461 E_vdwl   =      -555.5914 
E_coul   =        -2.1791 E_long   =         0.0000 Press    =         0.0721 
---------------- Step    70500 ----- CPU =     19.3755 (sec) ----------------
TotEng   =      -338.5584 KinEng   =       139.8624 Temp     =        11.3226 
PotEng   =      -478.4208 E_bond   =        42.5428 E_angle  =        34.4916 
E_dihed  =         0.0000 E_impro  =         2.2998 E_vdwl   =      -555.8855 
E_coul   =        -1.8695 E_long   =         0.0000 Press    =        -2.3068 
---------------- Step    71000 ----- CPU =     19.5413 (sec) ----------------
TotEng   =      -349.0881 KinEng   =       145.2996 Temp     =        11.7628 
PotEng   =      -494.3877 E_bond   =        37.1079 E_angle  =        35.4263 
E_dihed  =         0.0000 E_impro  =         3.8789 E_vdwl   =      -567.8402 
E_coul   =        -2.9608 E_long   =         0.0000 Press    =        -2.3360 
---------------- Step    71500 ----- CPU =     19.7000 (sec) ----------------
TotEng   =      -348.0081 KinEng   =       138.6532 Temp     =        11.2247 
PotEng   =      -486.6613 E_bond   =        43.7262 E_angle  =        37.2161 
E_dihed  =         0.0000 E_impro  =         1.3862 E_vdwl   =      -566.8259 
E_coul   =        -2.1638 E_long   =         0.0000 Press    =        -6.0704 
---------------- Step    72000 ----- CPU =     19.8610 (sec) ----------------
TotEng   =      -347.3316 KinEng   =       142.9118 Temp     =        11.5695 
PotEng   =      -490.2434 E_bond   =        46.1528 E_angle  =        37.5633 
E_dihed  =         0.0000 E_impro  =         1.5571 E_vdwl   =      -573.2630 
E_coul   =        -2.2536 E_long   =         0.0000 Press    =        -3.8279 
---------------- Step    72500 ----- CPU =     20.0237 (sec) ----------------
TotEng   =      -353.4221 KinEng   =       133.6414 Temp     =        10.8190 
PotEng   =      -487.0635 E_bond   =        47.7314 E_angle  =        38.5878 
E_dihed  =         0.0000 E_impro  =         2.6123 E_vdwl   =      -573.2314 
E_coul   =        -2.7636 E_long   =         0.0000 Press    =        -2.9083 
---------------- Step    73000 ----- CPU =     20.1866 (sec) ----------------
TotEng   =      -359.0699 KinEng   =       148.9421 Temp     =        12.0577 
PotEng   =      -508.0120 E_bond   =        38.7909 E_angle  =        39.2128 
E_dihed  =         0.0000 E_impro  =         2.1996 E_vdwl   =      -585.5140 
E_coul   =        -2.7013 E_long   =         0.0000 Press    =         0.2434 
---------------- Step    73500 ----- CPU =     20.3462 (sec) ----------------
TotEng   =      -351.0187 KinEng   =       142.4811 Temp     =        11.5346 
PotEng   =      -493.4998 E_bond   =        52.1806 E_angle  =        37.2568 
E_dihed  =         0.0000 E_impro  =         2.0814 E_vdwl   =      -582.1776 
E_coul   =        -2.8411 E_long   =         0.0000 Press    =        -4.9880 
---------------- Step    74000 ----- CPU =     20.5073 (sec) ----------------
TotEng   =      -353.3951 KinEng   =       149.6876 Temp     =        12.1180 
PotEng   =      -503.0827 E_bond   =        49.2686 E_angle  =        32.9316 
E_dihed  =         0.0000 E_impro  =         1.5484 E_vdwl   =      -584.0199 
E_coul   =        -2.8114 E_long   =         0.0000 Press    =        -2.6149 
---------------- Step    74500 ----- CPU =     20.6719 (sec) ----------------
TotEng   =      -351.9238 KinEng   =       144.5120 Temp     =        11.6990 
PotEng   =      -496.4359 E_bond   =        47.3488 E_angle  =        40.3890 
E_dihed  =         0.0000 E_impro  =         1.4865 E_vdwl   =      -582.4943 
E_coul   =        -3.1657 E_long   =         0.0000 Press    =        -5.0697 
---------------- Step    75000 ----- CPU =     20.8350 (sec) ----------------
TotEng   =      -379.9067 KinEng   =       135.5889 Temp     =        10.9767 
PotEng   =      -515.4956 E_bond   =        48.4393 E_angle  =        34.5269 
E_dihed  =         0.0000 E_impro  =         3.8240 E_vdwl   =      -598.8065 
E_coul   =        -3.4794 E_long   =         0.0000 Press    =        -3.0700 
---------------- Step    75500 ----- CPU =     20.9999 (sec) ----------------
TotEng   =      -375.5351 KinEng   =       138.6758 Temp     =        11.2266 
PotEng   =      -514.2109 E_bond   =        46.5250 E_angle  =        39.5297 
E_dihed  =         0.0000 E_impro  =         2.5545 E_vdwl   =      -599.5003 
E_coul   =        -3.3197 E_long   =         0.0000 Press    =        -5.5705 
---------------- Step    76000 ----- CPU =     21.1688 (sec) ----------------
TotEng   =      -355.2483 KinEng   =       147.1042 Temp     =        11.9089 
PotEng   =      -502.3525 E_bond   =        49.1626 E_angle  =        33.4221 
E_dihed  =         0.0000 E_impro  =         1.3264 E_vdwl   =      -583.0185 
E_coul   =        -3.2450 E_long   =         0.0000 Press    =        -1.3569 
---------------- Step    76500 ----- CPU =     21.3338 (sec) ----------------
TotEng   =      -365.0955 KinEng   =       142.4638 Temp     =        11.5332 
PotEng   =      -507.5593 E_bond   =        54.6905 E_angle  =        32.9805 
E_dihed  =         0.0000 E_impro  =         1.7610 E_vdwl   =      -593.2375 
E_coul   =        -3.7537 E_long   =         0.0000 Press    =        -5.1157 
---------------- Step    77000 ----- CPU =     21.5042 (sec) ----------------
TotEng   =      -374.6849 KinEng   =       139.1021 Temp     =        11.2611 
PotEng   =      -513.7870 E_bond   =        53.6426 E_angle  =        34.4180 
E_dihed  =         0.0000 E_impro  =         1.3056 E_vdwl   =      -599.6200 
E_coul   =        -3.5331 E_long   =         0.0000 Press    =        -5.6987 
---------------- Step    77500 ----- CPU =     21.6655 (sec) ----------------
TotEng   =      -374.6540 KinEng   =       133.5537 Temp     =        10.8119 
PotEng   =      -508.2077 E_bond   =        51.1907 E_angle  =        40.3923 
E_dihed  =         0.0000 E_impro  =         2.6268 E_vdwl   =      -598.2326 
E_coul   =        -4.1850 E_long   =         0.0000 Press    =       -11.2107 
---------------- Step    78000 ----- CPU =     21.8340 (sec) ----------------
TotEng   =      -365.7174 KinEng   =       150.9047 Temp     =        12.2166 
PotEng   =      -516.6220 E_bond   =        45.0388 E_angle  =        41.3032 
E_dihed  =         0.0000 E_impro  =         1.6050 E_vdwl   =      -599.7843 
E_coul   =        -4.7848 E_long   =         0.0000 Press    =        -9.1940 
---------------- Step    78500 ----- CPU =     22.0010 (sec) ----------------
TotEng   =      -359.9115 KinEng   =       156.8790 Temp     =        12.7002 
PotEng   =      -516.7905 E_bond   =        54.9699 E_angle  =        39.0039 
E_dihed  =         0.0000 E_impro  =         1.0746 E_vdwl   =      -607.1175 
E_coul   =        -4.7215 E_long   =         0.0000 Press    =        -4.2148 
---------------- Step    79000 ----- CPU =     22.1674 (sec) ----------------
TotEng   =      -380.5527 KinEng   =       137.2314 Temp     =        11.1096 
PotEng   =      -517.7841 E_bond   =        54.0783 E_angle  =        38.1403 
E_dihed  =         0.0000 E_impro  =         1.3079 E_vdwl   =      -606.3331 
E_coul   =        -4.9775 E_long   =         0.0000 Press    =        -8.7244 
---------------- Step    79500 ----- CPU =     22.3328 (sec) ----------------
TotEng   =      -359.8784 KinEng   =       154.6823 Temp     =        12.5224 
PotEng   =      -514.5607 E_bond   =        49.3229 E_angle  =        40.1759 
E_dihed  =         0.0000 E_impro  =         2.0263 E_vdwl   =      -600.8814 
E_coul   =        -5.2045 E_long   =         0.0000 Press    =        -6.9721 
---------------- Step    80000 ----- CPU =     22.5049 (sec) ----------------
TotEng   =      -368.4626 KinEng   =       150.3248 Temp     =        12.1696 
PotEng   =      -518.7874 E_bond   =        43.8533 E_angle  =        42.6851 
E_dihed  =         0.0000 E_impro  =         2.3745 E_vdwl   =      -602.5569 
E_coul   =        -5.1435 E_long   =         0.0000 Press    =        -1.8624 
---------------- Step    80500 ----- CPU =     22.6752 (sec) ----------------
TotEng   =      -384.0456 KinEng   =       139.9132 Temp     =        11.3267 
PotEng   =      -523.9588 E_bond   =        45.9880 E_angle  =        37.2914 
E_dihed  =         0.0000 E_impro  =         1.4388 E_vdwl   =      -603.6896 
E_coul   =        -4.9873 E_long   =         0.0000 Press    =        -3.5684 
---------------- Step    81000 ----- CPU =     22.8419 (sec) ----------------
TotEng   =      -372.2598 KinEng   =       140.0111 Temp     =        11.3347 
PotEng   =      -512.2709 E_bond   =        54.8475 E_angle  =        39.3256 
E_dihed  =         0.0000 E_impro  =         2.0918 E_vdwl   =      -603.0665 
E_coul   =        -5.4693 E_long   =         0.0000 Press    =        -3.1041 
---------------- Step    81500 ----- CPU =     23.0084 (sec) ----------------
TotEng   =      -387.1360 KinEng   =       138.6859 Temp     =        11.2274 
PotEng   =      -525.8219 E_bond   =        46.9781 E_angle  =        43.3363 
E_dihed  =         0.0000 E_impro  =         2.1719 E_vdwl   =      -613.5611 
E_coul   =        -4.7471 E_long   =         0.0000 Press    =        -4.4178 
---------------- Step    82000 ----- CPU =     23.1749 (sec) ----------------
TotEng   =      -367.0026 KinEng   =       143.4735 Temp     =        11.6150 
PotEng   =      -510.4761 E_bond   =        50.1883 E_angle  =        45.1953 
E_dihed  =         0.0000 E_impro  =         2.0539 E_vdwl   =      -603.4847 
E_coul   =        -4.4289 E_long   =         0.0000 Press    =         4.3183 
---------------- Step    82500 ----- CPU =     23.3462 (sec) ----------------
TotEng   =      -406.5375 KinEng   =       132.0358 Temp     =        10.6890 
PotEng   =      -538.5733 E_bond   =        44.8060 E_angle  =        41.5041 
E_dihed  =         0.0000 E_impro  =         2.7056 E_vdwl   =      -623.4932 
E_coul   =        -4.0958 E_long   =         0.0000 Press    =        -5.3626 
---------------- Step    83000 ----- CPU =     23.5162 (sec) ----------------
TotEng   =      -378.6988 KinEng   =       141.1363 Temp     =        11.4257 
PotEng   =      -519.8351 E_bond   =        57.3195 E_angle  =        40.2670 
E_dihed  =         0.0000 E_impro  =         2.1278 E_vdwl   =      -615.8246 
E_coul   =        -3.7248 E_long   =         0.0000 Press    =        -4.1993 
---------------- Step    83500 ----- CPU =     23.6867 (sec) ----------------
TotEng   =      -417.6521 KinEng   =       132.0878 Temp     =        10.6932 
PotEng   =      -549.7399 E_bond   =        39.7070 E_angle  =        38.1467 
E_dihed  =         0.0000 E_impro  =         2.1653 E_vdwl   =      -624.4210 
E_coul   =        -5.3379 E_long   =         0.0000 Press    =         1.0968 
---------------- Step    84000 ----- CPU =     23.8800 (sec) ----------------
TotEng   =      -389.3678 KinEng   =       140.5637 Temp     =        11.3794 
PotEng   =      -529.9315 E_bond   =        54.6914 E_angle  =        39.4964 
E_dihed  =         0.0000 E_impro  =         1.3602 E_vdwl   =      -620.6941 
E_coul   =        -4.7854 E_long   =         0.0000 Press    =         0.7302 
---------------- Step    84500 ----- CPU =     24.0519 (sec) ----------------
TotEng   =      -370.7362 KinEng   =       163.8371 Temp     =        13.2635 
PotEng   =      -534.5733 E_bond   =        49.9203 E_angle  =        41.7703 
E_dihed  =         0.0000 E_impro  =         1.7125 E_vdwl   =      -624.1978 
E_coul   =        -3.7786 E_long   =         0.0000 Press    =         1.0625 
---------------- Step    85000 ----- CPU =     24.2259 (sec) ----------------
TotEng   =      -396.2793 KinEng   =       130.7998 Temp     =        10.5890 
PotEng   =      -527.0791 E_bond   =        50.5554 E_angle  =        44.0128 
E_dihed  =         0.0000 E_impro  =         1.1810 E_vdwl   =      -618.8801 
E_coul   =        -3.9482 E_long   =         0.0000 Press    =        -4.1517 
---------------- Step    85500 ----- CPU =     24.4017 (sec) ----------------
TotEng   =      -368.3691 KinEng   =       155.7357 Temp     =        12.6076 
PotEng   =      -524.1048 E_bond   =        45.7167 E_angle  =        42.4480 
E_dihed  =         0.0000 E_impro  =         2.6581 E_vdwl   =      -610.7804 
E_coul   =        -4.1472 E_long   =         0.0000 Press    =         1.2105 
---------------- Step    86000 ----- CPU =     24.5707 (sec) ----------------
TotEng   =      -359.6312 KinEng   =       160.4257 Temp     =        12.9873 
PotEng   =      -520.0569 E_bond   =        53.8156 E_angle  =        42.5207 
E_dihed  =         0.0000 E_impro  =         2.0411 E_vdwl   =      -613.1085 
E_coul   =        -5.3257 E_long   =         0.0000 Press    =        -2.5690 
---------------- Step    86500 ----- CPU =     24.7388 (sec) ----------------
TotEng   =      -368.8022 KinEng   =       152.0819 Temp     =        12.3119 
PotEng   =      -520.8841 E_bond   =        49.7592 E_angle  =        42.8016 
E_dihed  =         0.0000 E_impro  =         2.4690 E_vdwl   =      -611.6813 
E_coul   =        -4.2325 E_long   =         0.0000 Press    =        -2.9006 
---------------- Step    87000 ----- CPU =     24.9039 (sec) ----------------
TotEng   =      -403.2886 KinEng   =       128.9040 Temp     =        10.4355 
PotEng   =      -532.1926 E_bond   =        40.4313 E_angle  =        39.9966 
E_dihed  =         0.0000 E_impro  =         1.1417 E_vdwl   =      -608.9572 
E_coul   =        -4.8051 E_long   =         0.0000 Press    =        -1.6080 
---------------- Step    87500 ----- CPU =     25.0778 (sec) ----------------
TotEng   =      -382.3232 KinEng   =       152.5352 Temp     =        12.3486 
PotEng   =      -534.8584 E_bond   =        44.1991 E_angle  =        43.2068 
E_dihed  =         0.0000 E_impro  =         1.2747 E_vdwl   =      -618.5610 
E_coul   =        -4.9781 E_long   =         0.0000 Press    =         1.0601 
---------------- Step    88000 ----- CPU =     25.2472 (sec) ----------------
TotEng   =      -380.2371 KinEng   =       144.3440 Temp     =        11.6854 
PotEng   =      -524.5811 E_bond   =        44.7598 E_angle  =        46.8743 
E_dihed  =         0.0000 E_impro  =         2.5683 E_vdwl   =      -613.7139 
E_coul   =        -5.0697 E_long   =         0.0000 Press    =        -1.6902 
---------------- Step    88500 ----- CPU =     25.4156 (sec) ----------------
TotEng   =      -391.1641 KinEng   =       141.8976 Temp     =        11.4874 
PotEng   =      -533.0617 E_bond   =        47.4716 E_angle  =        43.0077 
E_dihed  =         0.0000 E_impro  =         1.5132 E_vdwl   =      -620.1118 
E_coul   =        -4.9424 E_long   =         0.0000 Press    =        -4.7529 
---------------- Step    89000 ----- CPU =     25.5878 (sec) ----------------
TotEng   =      -379.7216 KinEng   =       159.5168 Temp     =        12.9138 
PotEng   =      -539.2384 E_bond   =        46.3484 E_angle  =        42.9339 
E_dihed  =         0.0000 E_impro  =         2.0326 E_vdwl   =      -625.1908 
E_coul   =        -5.3625 E_long   =         0.0000 Press    =        -5.7805 
---------------- Step    89500 ----- CPU =     25.7600 (sec) ----------------
TotEng   =      -398.1763 KinEng   =       140.8869 Temp     =        11.4056 
PotEng   =      -539.0632 E_bond   =        50.0696 E_angle  =        41.3552 
E_dihed  =         0.0000 E_impro  =         0.4692 E_vdwl   =      -625.7582 
E_coul   =        -5.1989 E_long   =         0.0000 Press    =        -1.7751 
---------------- Step    90000 ----- CPU =     25.9334 (sec) ----------------
TotEng   =      -375.7442 KinEng   =       150.4617 Temp     =        12.1807 
PotEng   =      -526.2059 E_bond   =        46.4671 E_angle  =        48.4801 
E_dihed  =         0.0000 E_impro  =         2.0065 E_vdwl   =      -617.8183 
E_coul   =        -5.3413 E_long   =         0.0000 Press    =         0.4865 
---------------- Step    90500 ----- CPU =     26.1051 (sec) ----------------
TotEng   =      -376.4512 KinEng   =       148.7464 Temp     =        12.0418 
PotEng   =      -525.1976 E_bond   =        55.0512 E_angle  =        47.4889 
E_dihed  =         0.0000 E_impro  =         1.8748 E_vdwl   =      -625.3784 
E_coul   =        -4.2341 E_long   =         0.0000 Press    =        -3.3047 
---------------- Step    91000 ----- CPU =     26.2808 (sec) ----------------
TotEng   =      -393.5481 KinEng   =       136.6746 Temp     =        11.0646 
PotEng   =      -530.2227 E_bond   =        44.0375 E_angle  =        42.2239 
E_dihed  =         0.0000 E_impro  =         1.7615 E_vdwl   =      -612.7902 
E_coul   =        -5.4555 E_long   =         0.0000 Press    =        -6.2741 
---------------- Step    91500 ----- CPU =     26.4494 (sec) ----------------
TotEng   =      -395.9067 KinEng   =       138.3446 Temp     =        11.1997 
PotEng   =      -534.2513 E_bond   =        40.9348 E_angle  =        41.5985 
E_dihed  =         0.0000 E_impro  =         0.9378 E_vdwl   =      -612.0692 
E_coul   =        -5.6532 E_long   =         0.0000 Press    =        -3.2877 
---------------- Step    92000 ----- CPU =     26.6234 (sec) ----------------
TotEng   =      -402.8014 KinEng   =       146.1801 Temp     =        11.8341 
PotEng   =      -548.9815 E_bond   =        41.0565 E_angle  =        41.7960 
E_dihed  =         0.0000 E_impro  =         0.3309 E_vdwl   =      -627.7483 
E_coul   =        -4.4166 E_long   =         0.0000 Press    =        -5.9480 
---------------- Step    92500 ----- CPU =     26.7998 (sec) ----------------
TotEng   =      -389.7890 KinEng   =       146.0606 Temp     =        11.8244 
PotEng   =      -535.8496 E_bond   =        49.8864 E_angle  =        45.2833 
E_dihed  =         0.0000 E_impro  =         0.6689 E_vdwl   =      -627.4312 
E_coul   =        -4.2570 E_long   =         0.0000 Press    =        -5.1744 
---------------- Step    93000 ----- CPU =     26.9806 (sec) ----------------
TotEng   =      -386.1695 KinEng   =       141.9436 Temp     =        11.4911 
PotEng   =      -528.1131 E_bond   =        52.3944 E_angle  =        44.6118 
E_dihed  =         0.0000 E_impro  =         2.3845 E_vdwl   =      -623.2700 
E_coul   =        -4.2338 E_long   =         0.0000 Press    =        -8.5365 
---------------- Step    93500 ----- CPU =     27.1506 (sec) ----------------
TotEng   =      -378.0251 KinEng   =       153.8914 Temp     =        12.4583 
PotEng   =      -531.9165 E_bond   =        58.3036 E_angle  =        43.7964 
E_dihed  =         0.0000 E_impro  =         3.7516 E_vdwl   =      -634.4895 
E_coul   =        -3.2786 E_long   =         0.0000 Press    =        -3.1974 
---------------- Step    94000 ----- CPU =     27.3280 (sec) ----------------
TotEng   =      -404.9400 KinEng   =       146.7351 Temp     =        11.8790 
PotEng   =      -551.6751 E_bond   =        47.4509 E_angle  =        43.8860 
E_dihed  =         0.0000 E_impro  =         1.9667 E_vdwl   =      -641.1597 
E_coul   =        -3.8191 E_long   =         0.0000 Press    =        -5.0558 
---------------- Step    94500 ----- CPU =     27.4961 (sec) ----------------
TotEng   =      -409.3524 KinEng   =       143.7966 Temp     =        11.6411 
PotEng   =      -553.1490 E_bond   =        48.0313 E_angle  =        45.6586 
E_dihed  =         0.0000 E_impro  =         0.5615 E_vdwl   =      -642.2791 
E_coul   =        -5.1214 E_long   =         0.0000 Press    =        -0.2172 
---------------- Step    95000 ----- CPU =     27.6730 (sec) ----------------
TotEng   =      -416.8065 KinEng   =       140.4266 Temp     =        11.3683 
PotEng   =      -557.2331 E_bond   =        52.9485 E_angle  =        45.9266 
E_dihed  =         0.0000 E_impro  =         0.8748 E_vdwl   =      -652.8286 
E_coul   =        -4.1545 E_long   =         0.0000 Press    =        -1.3756 
---------------- Step    95500 ----- CPU =     27.8468 (sec) ----------------
TotEng   =      -411.0411 KinEng   =       136.0697 Temp     =        11.0156 
PotEng   =      -547.1107 E_bond   =        45.9004 E_angle  =        48.5244 
E_dihed  =         0.0000 E_impro  =         1.3523 E_vdwl   =      -639.1103 
E_coul   =        -3.7775 E_long   =         0.0000 Press    =        -0.3546 
---------------- Step    96000 ----- CPU =     28.0170 (sec) ----------------
TotEng   =      -422.6035 KinEng   =       143.4241 Temp     =        11.6110 
PotEng   =      -566.0276 E_bond   =        47.0848 E_angle  =        40.8372 
E_dihed  =         0.0000 E_impro  =         2.4996 E_vdwl   =      -651.9567 
E_coul   =        -4.4925 E_long   =         0.0000 Press    =        -5.4328 
---------------- Step    96500 ----- CPU =     28.1900 (sec) ----------------
TotEng   =      -391.5746 KinEng   =       156.1274 Temp     =        12.6394 
PotEng   =      -547.7019 E_bond   =        46.8581 E_angle  =        45.8275 
E_dihed  =         0.0000 E_impro  =         0.8876 E_vdwl   =      -637.2142 
E_coul   =        -4.0610 E_long   =         0.0000 Press    =        -0.7519 
---------------- Step    97000 ----- CPU =     28.3642 (sec) ----------------
TotEng   =      -398.6428 KinEng   =       153.8277 Temp     =        12.4532 
PotEng   =      -552.4706 E_bond   =        50.7821 E_angle  =        44.4503 
E_dihed  =         0.0000 E_impro  =         1.0148 E_vdwl   =      -642.7249 
E_coul   =        -5.9927 E_long   =         0.0000 Press    =        -1.9262 
---------------- Step    97500 ----- CPU =     28.5346 (sec) ----------------
TotEng   =      -419.1683 KinEng   =       129.8605 Temp     =        10.5129 
PotEng   =      -549.0288 E_bond   =        55.0613 E_angle  =        44.0278 
E_dihed  =         0.0000 E_impro  =         2.6872 E_vdwl   =      -645.3450 
E_coul   =        -5.4599 E_long   =         0.0000 Press    =        -1.8197 
---------------- Step    98000 ----- CPU =     28.7104 (sec) ----------------
TotEng   =      -407.0786 KinEng   =       149.0976 Temp     =        12.0703 
PotEng   =      -556.1762 E_bond   =        48.5961 E_angle  =        45.0290 
E_dihed  =         0.0000 E_impro  =         0.9887 E_vdwl   =      -645.3964 
E_coul   =        -5.3936 E_long   =         0.0000 Press    =         1.5549 
---------------- Step    98500 ----- CPU =     28.8829 (sec) ----------------
TotEng   =      -410.5436 KinEng   =       158.3087 Temp     =        12.8160 
[...]
PotEng   =      -811.0366 E_bond   =        43.6108 E_angle  =        38.2821 
E_dihed  =         0.0000 E_impro  =         2.2033 E_vdwl   =      -889.2239 
E_coul   =        -5.9088 E_long   =         0.0000 Press    =         6.5550 
---------------- Step   777000 ----- CPU =    308.2973 (sec) ----------------
TotEng   =      -651.7341 KinEng   =       149.5398 Temp     =        12.1061 
PotEng   =      -801.2740 E_bond   =        48.4845 E_angle  =        41.1494 
E_dihed  =         0.0000 E_impro  =         1.0710 E_vdwl   =      -886.3627 
E_coul   =        -5.6161 E_long   =         0.0000 Press    =        -3.1688 
---------------- Step   777500 ----- CPU =    308.5169 (sec) ----------------
TotEng   =      -659.8659 KinEng   =       136.2177 Temp     =        11.0276 
PotEng   =      -796.0836 E_bond   =        48.9024 E_angle  =        41.5463 
E_dihed  =         0.0000 E_impro  =         1.7624 E_vdwl   =      -882.1698 
E_coul   =        -6.1249 E_long   =         0.0000 Press    =         4.0928 
---------------- Step   778000 ----- CPU =    308.7336 (sec) ----------------
TotEng   =      -641.6355 KinEng   =       138.9329 Temp     =        11.2474 
PotEng   =      -780.5684 E_bond   =        51.1114 E_angle  =        42.7875 
E_dihed  =         0.0000 E_impro  =         1.0163 E_vdwl   =      -869.6229 
E_coul   =        -5.8608 E_long   =         0.0000 Press    =         4.5160 
---------------- Step   778500 ----- CPU =    308.9497 (sec) ----------------
TotEng   =      -631.4381 KinEng   =       152.4328 Temp     =        12.3403 
PotEng   =      -783.8709 E_bond   =        53.0308 E_angle  =        39.8265 
E_dihed  =         0.0000 E_impro  =         0.9799 E_vdwl   =      -871.3849 
E_coul   =        -6.3232 E_long   =         0.0000 Press    =         1.0603 
---------------- Step   779000 ----- CPU =    309.1616 (sec) ----------------
TotEng   =      -650.7342 KinEng   =       139.8459 Temp     =        11.3213 
PotEng   =      -790.5801 E_bond   =        48.0454 E_angle  =        38.8544 
E_dihed  =         0.0000 E_impro  =         1.3495 E_vdwl   =      -872.2390 
E_coul   =        -6.5904 E_long   =         0.0000 Press    =        -1.6302 
---------------- Step   779500 ----- CPU =    309.3768 (sec) ----------------
TotEng   =      -644.5554 KinEng   =       155.0057 Temp     =        12.5486 
PotEng   =      -799.5612 E_bond   =        45.2058 E_angle  =        39.0090 
E_dihed  =         0.0000 E_impro  =         2.4096 E_vdwl   =      -880.0932 
E_coul   =        -6.0924 E_long   =         0.0000 Press    =         3.7334 
---------------- Step   780000 ----- CPU =    309.5922 (sec) ----------------
TotEng   =      -662.2336 KinEng   =       140.2352 Temp     =        11.3528 
PotEng   =      -802.4688 E_bond   =        57.1451 E_angle  =        33.4955 
E_dihed  =         0.0000 E_impro  =         1.8604 E_vdwl   =      -889.4296 
E_coul   =        -5.5402 E_long   =         0.0000 Press    =         1.8571 
---------------- Step   780500 ----- CPU =    309.8112 (sec) ----------------
TotEng   =      -680.5910 KinEng   =       129.2524 Temp     =        10.4637 
PotEng   =      -809.8434 E_bond   =        51.5945 E_angle  =        37.3996 
E_dihed  =         0.0000 E_impro  =         1.7932 E_vdwl   =      -894.3883 
E_coul   =        -6.2424 E_long   =         0.0000 Press    =        -2.1310 
---------------- Step   781000 ----- CPU =    310.0284 (sec) ----------------
TotEng   =      -664.6405 KinEng   =       145.3835 Temp     =        11.7696 
PotEng   =      -810.0240 E_bond   =        54.5496 E_angle  =        36.6840 
E_dihed  =         0.0000 E_impro  =         1.2571 E_vdwl   =      -896.4192 
E_coul   =        -6.0955 E_long   =         0.0000 Press    =         0.9834 
---------------- Step   781500 ----- CPU =    310.2461 (sec) ----------------
TotEng   =      -640.1727 KinEng   =       152.1688 Temp     =        12.3189 
PotEng   =      -792.3414 E_bond   =        53.0334 E_angle  =        42.8397 
E_dihed  =         0.0000 E_impro  =         1.4137 E_vdwl   =      -884.1352 
E_coul   =        -5.4930 E_long   =         0.0000 Press    =         0.0012 
---------------- Step   782000 ----- CPU =    310.4622 (sec) ----------------
TotEng   =      -669.9415 KinEng   =       132.1165 Temp     =        10.6955 
PotEng   =      -802.0580 E_bond   =        56.4995 E_angle  =        36.0066 
E_dihed  =         0.0000 E_impro  =         1.2790 E_vdwl   =      -890.0604 
E_coul   =        -5.7827 E_long   =         0.0000 Press    =         0.4671 
---------------- Step   782500 ----- CPU =    310.6772 (sec) ----------------
TotEng   =      -645.2923 KinEng   =       140.2119 Temp     =        11.3509 
PotEng   =      -785.5042 E_bond   =        69.5006 E_angle  =        37.3944 
E_dihed  =         0.0000 E_impro  =         1.2039 E_vdwl   =      -887.0400 
E_coul   =        -6.5631 E_long   =         0.0000 Press    =        -2.8419 
---------------- Step   783000 ----- CPU =    310.8923 (sec) ----------------
TotEng   =      -657.2783 KinEng   =       148.9927 Temp     =        12.0618 
PotEng   =      -806.2711 E_bond   =        51.3445 E_angle  =        31.3686 
E_dihed  =         0.0000 E_impro  =         2.3341 E_vdwl   =      -883.6964 
E_coul   =        -7.6219 E_long   =         0.0000 Press    =        -0.9294 
---------------- Step   783500 ----- CPU =    311.1083 (sec) ----------------
TotEng   =      -630.2034 KinEng   =       153.8200 Temp     =        12.4526 
PotEng   =      -784.0234 E_bond   =        53.5077 E_angle  =        34.7806 
E_dihed  =         0.0000 E_impro  =         2.9629 E_vdwl   =      -867.4301 
E_coul   =        -7.8444 E_long   =         0.0000 Press    =        -2.3574 
---------------- Step   784000 ----- CPU =    311.3183 (sec) ----------------
TotEng   =      -647.9186 KinEng   =       134.3890 Temp     =        10.8795 
PotEng   =      -782.3076 E_bond   =        46.1965 E_angle  =        36.5329 
E_dihed  =         0.0000 E_impro  =         2.5357 E_vdwl   =      -861.2097 
E_coul   =        -6.3631 E_long   =         0.0000 Press    =         0.1303 
---------------- Step   784500 ----- CPU =    311.5334 (sec) ----------------
TotEng   =      -662.5428 KinEng   =       147.0101 Temp     =        11.9013 
PotEng   =      -809.5529 E_bond   =        49.1119 E_angle  =        30.9202 
E_dihed  =         0.0000 E_impro  =         1.1253 E_vdwl   =      -882.3991 
E_coul   =        -8.3112 E_long   =         0.0000 Press    =        -2.4504 
---------------- Step   785000 ----- CPU =    311.7491 (sec) ----------------
TotEng   =      -647.0084 KinEng   =       143.5220 Temp     =        11.6189 
PotEng   =      -790.5305 E_bond   =        50.8751 E_angle  =        36.3089 
E_dihed  =         0.0000 E_impro  =         1.9650 E_vdwl   =      -871.1098 
E_coul   =        -8.5697 E_long   =         0.0000 Press    =        -0.5116 
---------------- Step   785500 ----- CPU =    311.9602 (sec) ----------------
TotEng   =      -648.4378 KinEng   =       148.2026 Temp     =        11.9978 
PotEng   =      -796.6404 E_bond   =        46.5935 E_angle  =        31.4281 
E_dihed  =         0.0000 E_impro  =         1.2631 E_vdwl   =      -868.2489 
E_coul   =        -7.6763 E_long   =         0.0000 Press    =         3.0503 
---------------- Step   786000 ----- CPU =    312.1742 (sec) ----------------
TotEng   =      -671.3662 KinEng   =       132.3917 Temp     =        10.7178 
PotEng   =      -803.7579 E_bond   =        53.5284 E_angle  =        32.7814 
E_dihed  =         0.0000 E_impro  =         1.1582 E_vdwl   =      -883.9128 
E_coul   =        -7.3131 E_long   =         0.0000 Press    =        -4.6011 
---------------- Step   786500 ----- CPU =    312.3921 (sec) ----------------
TotEng   =      -653.3460 KinEng   =       138.5430 Temp     =        11.2158 
PotEng   =      -791.8889 E_bond   =        53.7972 E_angle  =        35.1589 
E_dihed  =         0.0000 E_impro  =         2.0386 E_vdwl   =      -875.0880 
E_coul   =        -7.7956 E_long   =         0.0000 Press    =        -1.5026 
---------------- Step   787000 ----- CPU =    312.6031 (sec) ----------------
TotEng   =      -633.7967 KinEng   =       151.1356 Temp     =        12.2352 
PotEng   =      -784.9323 E_bond   =        49.0791 E_angle  =        36.7581 
E_dihed  =         0.0000 E_impro  =         2.6067 E_vdwl   =      -865.1150 
E_coul   =        -8.2612 E_long   =         0.0000 Press    =         1.9519 
---------------- Step   787500 ----- CPU =    312.8212 (sec) ----------------
TotEng   =      -659.4571 KinEng   =       138.1537 Temp     =        11.1843 
PotEng   =      -797.6108 E_bond   =        50.4391 E_angle  =        36.7054 
E_dihed  =         0.0000 E_impro  =         1.2600 E_vdwl   =      -879.2458 
E_coul   =        -6.7694 E_long   =         0.0000 Press    =        -3.3626 
---------------- Step   788000 ----- CPU =    313.0393 (sec) ----------------
TotEng   =      -653.0638 KinEng   =       134.6083 Temp     =        10.8973 
PotEng   =      -787.6721 E_bond   =        53.6157 E_angle  =        38.7614 
E_dihed  =         0.0000 E_impro  =         0.7995 E_vdwl   =      -873.1310 
E_coul   =        -7.7177 E_long   =         0.0000 Press    =        -0.9473 
---------------- Step   788500 ----- CPU =    313.2578 (sec) ----------------
TotEng   =      -636.1317 KinEng   =       158.0218 Temp     =        12.7927 
PotEng   =      -794.1536 E_bond   =        53.3931 E_angle  =        36.6713 
E_dihed  =         0.0000 E_impro  =         1.6523 E_vdwl   =      -877.7502 
E_coul   =        -8.1201 E_long   =         0.0000 Press    =         1.3819 
---------------- Step   789000 ----- CPU =    313.4723 (sec) ----------------
TotEng   =      -652.4429 KinEng   =       146.5257 Temp     =        11.8620 
PotEng   =      -798.9685 E_bond   =        47.0398 E_angle  =        36.4819 
E_dihed  =         0.0000 E_impro  =         0.9336 E_vdwl   =      -875.0813 
E_coul   =        -8.3426 E_long   =         0.0000 Press    =        -1.4286 
---------------- Step   789500 ----- CPU =    313.6823 (sec) ----------------
TotEng   =      -646.5045 KinEng   =       148.7788 Temp     =        12.0444 
PotEng   =      -795.2833 E_bond   =        49.9652 E_angle  =        33.4918 
E_dihed  =         0.0000 E_impro  =         1.4705 E_vdwl   =      -871.7886 
E_coul   =        -8.4221 E_long   =         0.0000 Press    =        -0.9882 
---------------- Step   790000 ----- CPU =    313.8972 (sec) ----------------
TotEng   =      -628.1755 KinEng   =       152.1908 Temp     =        12.3207 
PotEng   =      -780.3662 E_bond   =        45.7563 E_angle  =        36.2829 
E_dihed  =         0.0000 E_impro  =         1.0833 E_vdwl   =      -855.5941 
E_coul   =        -7.8947 E_long   =         0.0000 Press    =        -1.1824 
---------------- Step   790500 ----- CPU =    314.1129 (sec) ----------------
TotEng   =      -643.8023 KinEng   =       148.1206 Temp     =        11.9912 
PotEng   =      -791.9229 E_bond   =        46.2093 E_angle  =        34.5823 
E_dihed  =         0.0000 E_impro  =         0.6356 E_vdwl   =      -865.3946 
E_coul   =        -7.9556 E_long   =         0.0000 Press    =        -7.3424 
---------------- Step   791000 ----- CPU =    314.3240 (sec) ----------------
TotEng   =      -621.2210 KinEng   =       140.5995 Temp     =        11.3823 
PotEng   =      -761.8206 E_bond   =        53.4786 E_angle  =        35.9725 
E_dihed  =         0.0000 E_impro  =         1.8660 E_vdwl   =      -844.4084 
E_coul   =        -8.7293 E_long   =         0.0000 Press    =        -7.6259 
---------------- Step   791500 ----- CPU =    314.5372 (sec) ----------------
TotEng   =      -607.8616 KinEng   =       155.2964 Temp     =        12.5721 
PotEng   =      -763.1580 E_bond   =        41.1822 E_angle  =        35.5533 
E_dihed  =         0.0000 E_impro  =         1.5141 E_vdwl   =      -833.0367 
E_coul   =        -8.3710 E_long   =         0.0000 Press    =        -0.9900 
---------------- Step   792000 ----- CPU =    314.7492 (sec) ----------------
TotEng   =      -609.6073 KinEng   =       147.5703 Temp     =        11.9466 
PotEng   =      -757.1777 E_bond   =        53.6636 E_angle  =        37.4626 
E_dihed  =         0.0000 E_impro  =         0.5558 E_vdwl   =      -840.2312 
E_coul   =        -8.6285 E_long   =         0.0000 Press    =        -4.3122 
---------------- Step   792500 ----- CPU =    314.9592 (sec) ----------------
TotEng   =      -654.4671 KinEng   =       130.6972 Temp     =        10.5806 
PotEng   =      -785.1643 E_bond   =        44.8163 E_angle  =        35.2665 
E_dihed  =         0.0000 E_impro  =         1.3790 E_vdwl   =      -858.5372 
E_coul   =        -8.0888 E_long   =         0.0000 Press    =        -2.5752 
---------------- Step   793000 ----- CPU =    315.1713 (sec) ----------------
TotEng   =      -648.3769 KinEng   =       127.4417 Temp     =        10.3171 
PotEng   =      -775.8186 E_bond   =        48.8584 E_angle  =        37.1994 
E_dihed  =         0.0000 E_impro  =         0.9429 E_vdwl   =      -854.5270 
E_coul   =        -8.2922 E_long   =         0.0000 Press    =        -7.5357 
---------------- Step   793500 ----- CPU =    315.3851 (sec) ----------------
TotEng   =      -637.1351 KinEng   =       144.5763 Temp     =        11.7042 
PotEng   =      -781.7113 E_bond   =        57.0484 E_angle  =        34.8071 
E_dihed  =         0.0000 E_impro  =         1.1684 E_vdwl   =      -866.7240 
E_coul   =        -8.0112 E_long   =         0.0000 Press    =        -4.2046 
---------------- Step   794000 ----- CPU =    315.6002 (sec) ----------------
TotEng   =      -626.6104 KinEng   =       145.6992 Temp     =        11.7951 
PotEng   =      -772.3097 E_bond   =        63.9604 E_angle  =        36.2178 
E_dihed  =         0.0000 E_impro  =         1.4952 E_vdwl   =      -866.2872 
E_coul   =        -7.6959 E_long   =         0.0000 Press    =        -3.8408 
---------------- Step   794500 ----- CPU =    315.8144 (sec) ----------------
TotEng   =      -642.6642 KinEng   =       137.5770 Temp     =        11.1376 
PotEng   =      -780.2412 E_bond   =        55.2470 E_angle  =        33.3493 
E_dihed  =         0.0000 E_impro  =         0.6825 E_vdwl   =      -861.8787 
E_coul   =        -7.6413 E_long   =         0.0000 Press    =        -6.7209 
---------------- Step   795000 ----- CPU =    316.0280 (sec) ----------------
TotEng   =      -626.5042 KinEng   =       148.9383 Temp     =        12.0574 
PotEng   =      -775.4425 E_bond   =        50.2446 E_angle  =        37.0693 
E_dihed  =         0.0000 E_impro  =         2.0931 E_vdwl   =      -856.4672 
E_coul   =        -8.3823 E_long   =         0.0000 Press    =        -0.7839 
---------------- Step   795500 ----- CPU =    316.2412 (sec) ----------------
TotEng   =      -635.5761 KinEng   =       140.5778 Temp     =        11.3805 
PotEng   =      -776.1539 E_bond   =        56.8702 E_angle  =        39.2419 
E_dihed  =         0.0000 E_impro  =         0.7828 E_vdwl   =      -864.7881 
E_coul   =        -8.2607 E_long   =         0.0000 Press    =        -5.0188 
---------------- Step   796000 ----- CPU =    316.4510 (sec) ----------------
TotEng   =      -642.3242 KinEng   =       147.1585 Temp     =        11.9133 
PotEng   =      -789.4827 E_bond   =        46.7175 E_angle  =        35.5257 
E_dihed  =         0.0000 E_impro  =         1.7327 E_vdwl   =      -865.1745 
E_coul   =        -8.2842 E_long   =         0.0000 Press    =        -5.4918 
---------------- Step   796500 ----- CPU =    316.6641 (sec) ----------------
TotEng   =      -642.6217 KinEng   =       144.1612 Temp     =        11.6706 
PotEng   =      -786.7829 E_bond   =        49.3705 E_angle  =        32.4033 
E_dihed  =         0.0000 E_impro  =         1.5869 E_vdwl   =      -862.7643 
E_coul   =        -7.3794 E_long   =         0.0000 Press    =        -3.4564 
---------------- Step   797000 ----- CPU =    316.8812 (sec) ----------------
TotEng   =      -631.3496 KinEng   =       151.1349 Temp     =        12.2352 
PotEng   =      -782.4845 E_bond   =        43.8877 E_angle  =        36.6139 
E_dihed  =         0.0000 E_impro  =         1.2316 E_vdwl   =      -856.5437 
E_coul   =        -7.6740 E_long   =         0.0000 Press    =        -0.9876 
---------------- Step   797500 ----- CPU =    317.0942 (sec) ----------------
TotEng   =      -631.1351 KinEng   =       143.4882 Temp     =        11.6162 
PotEng   =      -774.6233 E_bond   =        59.5792 E_angle  =        37.3668 
E_dihed  =         0.0000 E_impro  =         4.2827 E_vdwl   =      -867.7517 
E_coul   =        -8.1004 E_long   =         0.0000 Press    =        -1.8712 
---------------- Step   798000 ----- CPU =    317.3075 (sec) ----------------
TotEng   =      -631.2717 KinEng   =       158.2743 Temp     =        12.8132 
PotEng   =      -789.5459 E_bond   =        57.6794 E_angle  =        33.3485 
E_dihed  =         0.0000 E_impro  =         1.4900 E_vdwl   =      -874.2228 
E_coul   =        -7.8410 E_long   =         0.0000 Press    =        -6.2774 
---------------- Step   798500 ----- CPU =    317.5213 (sec) ----------------
TotEng   =      -637.0969 KinEng   =       142.0353 Temp     =        11.4985 
PotEng   =      -779.1322 E_bond   =        53.0312 E_angle  =        36.2950 
E_dihed  =         0.0000 E_impro  =         2.0151 E_vdwl   =      -863.0169 
E_coul   =        -7.4566 E_long   =         0.0000 Press    =         0.7893 
---------------- Step   799000 ----- CPU =    317.7368 (sec) ----------------
TotEng   =      -634.8426 KinEng   =       156.0570 Temp     =        12.6337 
PotEng   =      -790.8997 E_bond   =        53.4161 E_angle  =        36.1360 
E_dihed  =         0.0000 E_impro  =         1.0933 E_vdwl   =      -874.3439 
E_coul   =        -7.2012 E_long   =         0.0000 Press    =         4.2384 
---------------- Step   799500 ----- CPU =    317.9525 (sec) ----------------
TotEng   =      -645.2137 KinEng   =       148.2215 Temp     =        11.9993 
PotEng   =      -793.4352 E_bond   =        49.8491 E_angle  =        33.2356 
E_dihed  =         0.0000 E_impro  =         1.5265 E_vdwl   =      -871.4903 
E_coul   =        -6.5560 E_long   =         0.0000 Press    =         2.0081 
---------------- Step   800000 ----- CPU =    318.1697 (sec) ----------------
TotEng   =      -647.3039 KinEng   =       147.9348 Temp     =        11.9761 
PotEng   =      -795.2387 E_bond   =        52.4180 E_angle  =        32.9761 
E_dihed  =         0.0000 E_impro  =         0.6753 E_vdwl   =      -873.4114 
E_coul   =        -7.8967 E_long   =         0.0000 Press    =         0.9530 
Loop time of 318.17 on 1 procs for 800000 steps with 4145 atoms

Performance: 651.728 ns/day, 0.037 hours/ns, 2514.382 timesteps/s
99.5% CPU use with 1 MPI tasks x 1 OpenMP threads

MPI task timing breakdown:
Section |  min time  |  avg time  |  max time  |%varavg| %total
---------------------------------------------------------------
Pair    | 240.2      | 240.2      | 240.2      |   0.0 | 75.49
Bond    | 9.3367     | 9.3367     | 9.3367     |   0.0 |  2.93
Neigh   | 27.391     | 27.391     | 27.391     |   0.0 |  8.61
Comm    | 6.7939     | 6.7939     | 6.7939     |   0.0 |  2.14
Output  | 6.174      | 6.174      | 6.174      |   0.0 |  1.94
Modify  | 18.65      | 18.65      | 18.65      |   0.0 |  5.86
Other   |            | 9.623      |            |       |  3.02

Nlocal:        4145.00 ave        4145 max        4145 min
Histogram: 1 0 0 0 0 0 0 0 0 0
Nghost:        2210.00 ave        2210 max        2210 min
Histogram: 1 0 0 0 0 0 0 0 0 0
Neighs:        12850.0 ave       12850 max       12850 min
Histogram: 1 0 0 0 0 0 0 0 0 0

Total # of neighbors = 12850
Ave neighs/atom = 3.1001206
Ave special neighs/atom = 0.32714113
Neighbor list builds = 9523
Dangerous builds = 1
Total wall time: 0:05:18
