LAMMPS (27 May 2021)
OMP_NUM_THREADS environment is not set. Defaulting to 1 thread. (src/comm.cpp:98)
  using 1 OpenMP thread(s) per MPI task
# only protein 1hrc

units		real
boundary	p p p
atom_style	full

pair_style	lj/gromacs/coul/gromacs 9 12 0 12
bond_style      harmonic
special_bonds lj/coul 0.0 1.0 0.0
angle_style     cosine/squared
dihedral_style  charmm
improper_style  harmonic

read_data	protein_lam_data.txt
Reading data file ...
  orthogonal box = (-40.500000 -40.500000 -190.00000) to (40.500000 40.500000 190.00000)
  1 by 1 by 1 MPI processor grid
  reading atoms ...
  236 atoms
  scanning bonds ...
  2 = max bonds/atom
  scanning angles ...
  2 = max angles/atom
  scanning dihedrals ...
  1 = max dihedrals/atom
  scanning impropers ...
  2 = max impropers/atom
  reading bonds ...
  248 bonds
  reading angles ...
  233 angles
  reading dihedrals ...
  28 dihedrals
  reading impropers ...
  13 impropers
Finding 1-2 1-3 1-4 neighbors ...
  special bond factors lj:    0        1        0       
  special bond factors coul:  0        1        0       
     3 = max # of 1-2 neighbors
     6 = max # of 1-3 neighbors
    16 = max # of 1-4 neighbors
    15 = max # of special neighbors
  special bonds CPU = 0.000 seconds
  read_data CPU = 0.000 seconds

region 		repell block INF INF INF INF -51.0 50.0

group		driver id 1
1 atoms in group driver
group 		protein molecule 1
236 atoms in group protein

velocity	driver set 0 0 0
neighbor	1.1 bin
neigh_modify	delay 5

timestep	3

thermo_style	multi
thermo		50

minimize 	1.0e-4 1.0e-6 100 1000
WARNING: Using 'neigh_modify every 1 delay 0 check yes' setting during minimization (src/min.cpp:189)
Neighbor list info ...
  update every 1 steps, delay 0 steps, check yes
  max neighbors/atom: 2000, page size: 100000
  master list distance cutoff = 13.1
  ghost atom cutoff = 13.1
  binsize = 6.55, bins = 13 13 59
  1 neighbor lists, perpetual/occasional/extra = 1 0 0
  (1) pair lj/gromacs/coul/gromacs, perpetual
      attributes: half, newton on
      pair build: half/bin/newton
      stencil: half/bin/3d
      bin: standard
Per MPI rank memory allocation (min/avg/max) = 9.775 | 9.775 | 9.775 Mbytes
---------------- Step        0 ----- CPU =      0.0000 (sec) ----------------
TotEng   =     -1593.0141 KinEng   =         0.0000 Temp     =         0.0000 
PotEng   =     -1593.0141 E_bond   =       116.1157 E_angle  =        62.1997 
E_dihed  =         9.9410 E_impro  =         4.0966 E_vdwl   =      -950.4841 
E_coul   =      -834.8830 E_long   =         0.0000 Press    =        -3.6550 
---------------- Step       50 ----- CPU =      0.0157 (sec) ----------------
TotEng   =     -1823.1961 KinEng   =         0.0000 Temp     =         0.0000 
PotEng   =     -1823.1961 E_bond   =        53.1937 E_angle  =        49.4051 
E_dihed  =        10.3650 E_impro  =         2.0902 E_vdwl   =     -1060.1176 
E_coul   =      -878.1325 E_long   =         0.0000 Press    =        -0.1250 
---------------- Step       54 ----- CPU =      0.0157 (sec) ----------------
TotEng   =     -1824.4441 KinEng   =         0.0000 Temp     =         0.0000 
PotEng   =     -1824.4441 E_bond   =        53.3852 E_angle  =        49.6934 
E_dihed  =        10.1765 E_impro  =         2.1079 E_vdwl   =     -1060.4817 
E_coul   =      -879.3254 E_long   =         0.0000 Press    =        -0.0442 
Loop time of 0.0156589 on 1 procs for 54 steps with 236 atoms

99.8% CPU use with 1 MPI tasks x 1 OpenMP threads

Minimization stats:
  Stopping criterion = energy tolerance
  Energy initial, next-to-last, final = 
     -1593.01412531314  -1824.28946475752  -1824.44408889564
  Force two-norm initial, final = 109.04947 3.5094518
  Force max component initial, final = 16.108708 0.83836935
  Final line search alpha, max atom move = 0.046820605 0.039252960
  Iterations, force evaluations = 54 71

MPI task timing breakdown:
Section |  min time  |  avg time  |  max time  |%varavg| %total
---------------------------------------------------------------
Pair    | 0.015659   | 0.015659   | 0.015659   |   0.0 |100.00
Bond    | 0          | 0          | 0          |   0.0 |  0.00
Neigh   | 0          | 0          | 0          |   0.0 |  0.00
Comm    | 0          | 0          | 0          |   0.0 |  0.00
Output  | 0          | 0          | 0          |   0.0 |  0.00
Modify  | 0          | 0          | 0          |   0.0 |  0.00
Other   |            | 0          |            |       |  0.00

Nlocal:        236.000 ave         236 max         236 min
Histogram: 1 0 0 0 0 0 0 0 0 0
Nghost:         0.00000 ave           0 max           0 min
Histogram: 1 0 0 0 0 0 0 0 0 0
Neighs:        8191.00 ave        8191 max        8191 min
Histogram: 1 0 0 0 0 0 0 0 0 0

Total # of neighbors = 8191
Ave neighs/atom = 34.707627
Ave special neighs/atom = 8.4576271
Neighbor list builds = 8
Dangerous builds = 0
fix		1 all nve temp 298.15 298.15 $(100.0*dt)
fix		1 all nve temp 298.15 298.15 300
#fix		2 protein langevin 298.15 298.15 10000 12345
fix		3 protein addforce 0 0 -1 region repell
fix		4 driver setforce 0 0 0


dump id all custom 50 output.lammpstrj id type xu yu zu		#vmd/pymol
run 80000
Per MPI rank memory allocation (min/avg/max) = 8.650 | 8.650 | 8.650 Mbytes
---------------- Step       54 ----- CPU =      0.0000 (sec) ----------------
TotEng   =     -1824.4441 KinEng   =         0.0000 Temp     =         0.0000 
PotEng   =     -1824.4441 E_bond   =        53.3852 E_angle  =        49.6934 
E_dihed  =        10.1765 E_impro  =         2.1079 E_vdwl   =     -1060.4817 
E_coul   =      -879.3254 E_long   =         0.0000 Press    =        -0.0442 
---------------- Step      100 ----- CPU =      0.0156 (sec) ----------------
TotEng   =     -1824.4441 KinEng   =         0.1641 Temp     =         0.2342 
PotEng   =     -1824.6082 E_bond   =        53.4366 E_angle  =        49.5913 
E_dihed  =        10.2305 E_impro  =         2.1191 E_vdwl   =     -1060.3182 
E_coul   =      -879.6676 E_long   =         0.0000 Press    =        -0.0414 
---------------- Step      150 ----- CPU =      0.0156 (sec) ----------------
TotEng   =     -1824.4441 KinEng   =         0.4336 Temp     =         0.6189 
PotEng   =     -1824.8777 E_bond   =        53.3753 E_angle  =        49.4486 
E_dihed  =        10.2417 E_impro  =         2.1244 E_vdwl   =     -1060.4737 
E_coul   =      -879.5939 E_long   =         0.0000 Press    =        -0.0905 
---------------- Step      200 ----- CPU =      0.0312 (sec) ----------------
TotEng   =     -1824.4441 KinEng   =         0.7891 Temp     =         1.1265 
PotEng   =     -1825.2333 E_bond   =        53.2727 E_angle  =        49.4333 
E_dihed  =        10.1502 E_impro  =         2.1236 E_vdwl   =     -1060.5065 
E_coul   =      -879.7066 E_long   =         0.0000 Press    =        -0.1828 
---------------- Step      250 ----- CPU =      0.0312 (sec) ----------------
TotEng   =     -1824.4441 KinEng   =         1.0653 Temp     =         1.5208 
PotEng   =     -1825.5094 E_bond   =        53.0109 E_angle  =        49.4171 
E_dihed  =        10.1127 E_impro  =         2.1501 E_vdwl   =     -1060.8805 
E_coul   =      -879.3197 E_long   =         0.0000 Press    =        -0.2775 
---------------- Step      300 ----- CPU =      0.0469 (sec) ----------------
TotEng   =     -1824.4441 KinEng   =         1.3458 Temp     =         1.9213 
PotEng   =     -1825.7900 E_bond   =        52.9110 E_angle  =        49.3041 
E_dihed  =        10.1075 E_impro  =         2.2097 E_vdwl   =     -1060.5763 
E_coul   =      -879.7460 E_long   =         0.0000 Press    =        -0.2305 
---------------- Step      350 ----- CPU =      0.0469 (sec) ----------------
TotEng   =     -1824.4441 KinEng   =         1.6637 Temp     =         2.3751 
PotEng   =     -1826.1079 E_bond   =        52.6189 E_angle  =        49.2343 
E_dihed  =        10.0006 E_impro  =         2.2510 E_vdwl   =     -1060.8020 
E_coul   =      -879.4107 E_long   =         0.0000 Press    =        -0.2840 
---------------- Step      400 ----- CPU =      0.0625 (sec) ----------------
TotEng   =     -1824.4441 KinEng   =         1.9630 Temp     =         2.8024 
PotEng   =     -1826.4072 E_bond   =        52.5294 E_angle  =        49.2561 
E_dihed  =         9.9180 E_impro  =         2.2723 E_vdwl   =     -1061.3503 
E_coul   =      -879.0327 E_long   =         0.0000 Press    =        -0.3832 
---------------- Step      450 ----- CPU =      0.0625 (sec) ----------------
TotEng   =     -1824.4441 KinEng   =         2.2107 Temp     =         3.1559 
PotEng   =     -1826.6548 E_bond   =        52.4736 E_angle  =        49.2604 
E_dihed  =         9.9509 E_impro  =         2.2975 E_vdwl   =     -1061.6439 
E_coul   =      -878.9934 E_long   =         0.0000 Press    =        -0.3758 
---------------- Step      500 ----- CPU =      0.0781 (sec) ----------------
TotEng   =     -1824.4441 KinEng   =         2.3549 Temp     =         3.3618 
PotEng   =     -1826.7990 E_bond   =        52.6218 E_angle  =        49.2985 
E_dihed  =        10.0051 E_impro  =         2.3243 E_vdwl   =     -1062.1476 
E_coul   =      -878.9011 E_long   =         0.0000 Press    =        -0.3411 
---------------- Step      550 ----- CPU =      0.0781 (sec) ----------------
TotEng   =     -1824.4441 KinEng   =         2.4617 Temp     =         3.5143 
PotEng   =     -1826.9059 E_bond   =        53.0132 E_angle  =        49.4195 
E_dihed  =        10.0177 E_impro  =         2.3423 E_vdwl   =     -1062.7180 
E_coul   =      -878.9805 E_long   =         0.0000 Press    =        -0.2651 
---------------- Step      600 ----- CPU =      0.0937 (sec) ----------------
TotEng   =     -1824.4441 KinEng   =         2.5778 Temp     =         3.6801 
PotEng   =     -1827.0220 E_bond   =        53.3905 E_angle  =        49.6297 
E_dihed  =         9.9547 E_impro  =         2.3579 E_vdwl   =     -1063.4804 
E_coul   =      -878.8744 E_long   =         0.0000 Press    =        -0.2895 
---------------- Step      650 ----- CPU =      0.0937 (sec) ----------------
TotEng   =     -1824.4441 KinEng   =         2.7033 Temp     =         3.8592 
PotEng   =     -1827.1474 E_bond   =        54.0965 E_angle  =        49.8827 
E_dihed  =         9.9972 E_impro  =         2.3672 E_vdwl   =     -1064.4038 
E_coul   =      -879.0872 E_long   =         0.0000 Press    =        -0.2818 
---------------- Step      700 ----- CPU =      0.1093 (sec) ----------------
TotEng   =     -1824.4442 KinEng   =         2.7848 Temp     =         3.9756 
PotEng   =     -1827.2290 E_bond   =        54.8376 E_angle  =        50.0962 
E_dihed  =        10.1464 E_impro  =         2.3479 E_vdwl   =     -1065.7695 
E_coul   =      -878.8875 E_long   =         0.0000 Press    =        -0.2768 
---------------- Step      750 ----- CPU =      0.1093 (sec) ----------------
TotEng   =     -1824.4441 KinEng   =         2.6597 Temp     =         3.7969 
PotEng   =     -1827.1038 E_bond   =        55.1606 E_angle  =        50.3755 
E_dihed  =        10.3153 E_impro  =         2.3046 E_vdwl   =     -1066.3163 
E_coul   =      -878.9435 E_long   =         0.0000 Press    =        -0.1548 
---------------- Step      800 ----- CPU =      0.1250 (sec) ----------------
TotEng   =     -1824.4441 KinEng   =         2.5057 Temp     =         3.5770 
PotEng   =     -1826.9498 E_bond   =        55.1476 E_angle  =        50.6844 
E_dihed  =        10.4582 E_impro  =         2.2204 E_vdwl   =     -1066.3985 
E_coul   =      -879.0620 E_long   =         0.0000 Press    =        -0.0615 
---------------- Step      850 ----- CPU =      0.1250 (sec) ----------------
TotEng   =     -1824.4441 KinEng   =         2.4648 Temp     =         3.5186 
PotEng   =     -1826.9089 E_bond   =        55.1643 E_angle  =        50.9768 
E_dihed  =        10.5243 E_impro  =         2.0917 E_vdwl   =     -1066.4173 
E_coul   =      -879.2487 E_long   =         0.0000 Press    =        -0.0278 
---------------- Step      900 ----- CPU =      0.1406 (sec) ----------------
TotEng   =     -1824.4441 KinEng   =         2.6700 Temp     =         3.8116 
PotEng   =     -1827.1141 E_bond   =        55.0247 E_angle  =        51.0053 
E_dihed  =        10.5815 E_impro  =         1.9795 E_vdwl   =     -1066.6531 
E_coul   =      -879.0519 E_long   =         0.0000 Press    =        -0.1226 
---------------- Step      950 ----- CPU =      0.1406 (sec) ----------------
TotEng   =     -1824.4441 KinEng   =         3.1356 Temp     =         4.4764 
PotEng   =     -1827.5798 E_bond   =        54.7519 E_angle  =        50.9189 
E_dihed  =        10.7112 E_impro  =         1.9658 E_vdwl   =     -1066.4515 
E_coul   =      -879.4760 E_long   =         0.0000 Press    =        -0.2207 
---------------- Step     1000 ----- CPU =      0.1562 (sec) ----------------
TotEng   =     -1824.4441 KinEng   =         3.5881 Temp     =         5.1223 
PotEng   =     -1828.0323 E_bond   =        54.2876 E_angle  =        51.1364 
E_dihed  =        10.8598 E_impro  =         2.0128 E_vdwl   =     -1066.2841 
E_coul   =      -880.0448 E_long   =         0.0000 Press    =        -0.3092 
---------------- Step     1050 ----- CPU =      0.1562 (sec) ----------------
TotEng   =     -1824.4441 KinEng   =         3.9405 Temp     =         5.6254 
PotEng   =     -1828.3847 E_bond   =        54.0932 E_angle  =        51.5040 
E_dihed  =        11.0269 E_impro  =         2.0744 E_vdwl   =     -1066.1551 
E_coul   =      -880.9281 E_long   =         0.0000 Press    =        -0.3258 
---------------- Step     1100 ----- CPU =      0.1719 (sec) ----------------
TotEng   =     -1824.4441 KinEng   =         4.2235 Temp     =         6.0294 
PotEng   =     -1828.6677 E_bond   =        54.3380 E_angle  =        51.4667 
E_dihed  =        11.3712 E_impro  =         2.1489 E_vdwl   =     -1066.7097 
E_coul   =      -881.2827 E_long   =         0.0000 Press    =        -0.3269 
---------------- Step     1150 ----- CPU =      0.1719 (sec) ----------------
TotEng   =     -1824.4442 KinEng   =         4.4480 Temp     =         6.3498 
PotEng   =     -1828.8921 E_bond   =        54.5419 E_angle  =        51.3741 
E_dihed  =        11.4178 E_impro  =         2.2283 E_vdwl   =     -1066.9567 
E_coul   =      -881.4976 E_long   =         0.0000 Press    =        -0.2436 
---------------- Step     1200 ----- CPU =      0.1875 (sec) ----------------
TotEng   =     -1824.4441 KinEng   =         4.6314 Temp     =         6.6116 
PotEng   =     -1829.0755 E_bond   =        54.1664 E_angle  =        51.3234 
E_dihed  =        11.2685 E_impro  =         2.2865 E_vdwl   =     -1066.5806 
E_coul   =      -881.5397 E_long   =         0.0000 Press    =        -0.1337 
---------------- Step     1250 ----- CPU =      0.1875 (sec) ----------------
TotEng   =     -1824.4442 KinEng   =         4.7929 Temp     =         6.8422 
PotEng   =     -1829.2371 E_bond   =        53.4360 E_angle  =        51.1565 
E_dihed  =        11.2959 E_impro  =         2.2843 E_vdwl   =     -1066.0337 
E_coul   =      -881.3761 E_long   =         0.0000 Press    =        -0.0386 
---------------- Step     1300 ----- CPU =      0.2031 (sec) ----------------
TotEng   =     -1824.4442 KinEng   =         4.8140 Temp     =         6.8724 
PotEng   =     -1829.2582 E_bond   =        52.5611 E_angle  =        51.0577 
E_dihed  =        11.4997 E_impro  =         2.2652 E_vdwl   =     -1065.7834 
E_coul   =      -880.8585 E_long   =         0.0000 Press    =        -0.0062 
---------------- Step     1350 ----- CPU =      0.2031 (sec) ----------------
TotEng   =     -1824.4441 KinEng   =         4.7851 Temp     =         6.8310 
PotEng   =     -1829.2292 E_bond   =        51.6900 E_angle  =        51.3779 
E_dihed  =        11.6942 E_impro  =         2.2938 E_vdwl   =     -1065.8048 
E_coul   =      -880.4803 E_long   =         0.0000 Press    =        -0.0342 
---------------- Step     1400 ----- CPU =      0.2187 (sec) ----------------
TotEng   =     -1824.4442 KinEng   =         4.8833 Temp     =         6.9712 
PotEng   =     -1829.3274 E_bond   =        50.7042 E_angle  =        51.8269 
E_dihed  =        11.9192 E_impro  =         2.2916 E_vdwl   =     -1065.2904 
E_coul   =      -880.7790 E_long   =         0.0000 Press    =        -0.0167 
---------------- Step     1450 ----- CPU =      0.2187 (sec) ----------------
TotEng   =     -1824.4442 KinEng   =         5.1411 Temp     =         7.3393 
PotEng   =     -1829.5853 E_bond   =        50.0490 E_angle  =        52.2451 
E_dihed  =        11.9242 E_impro  =         2.1990 E_vdwl   =     -1065.0159 
E_coul   =      -880.9867 E_long   =         0.0000 Press    =        -0.0659 
---------------- Step     1500 ----- CPU =      0.2343 (sec) ----------------
TotEng   =     -1824.4442 KinEng   =         5.3601 Temp     =         7.6520 
PotEng   =     -1829.8043 E_bond   =        49.7722 E_angle  =        52.4662 
E_dihed  =        11.7069 E_impro  =         2.1160 E_vdwl   =     -1064.7722 
E_coul   =      -881.0934 E_long   =         0.0000 Press    =        -0.1678 
---------------- Step     1550 ----- CPU =      0.2343 (sec) ----------------
TotEng   =     -1824.4442 KinEng   =         5.3386 Temp     =         7.6212 
PotEng   =     -1829.7827 E_bond   =        49.4783 E_angle  =        52.6179 
E_dihed  =        11.5309 E_impro  =         2.0512 E_vdwl   =     -1063.8656 
E_coul   =      -881.5955 E_long   =         0.0000 Press    =        -0.2454 
---------------- Step     1600 ----- CPU =      0.2500 (sec) ----------------
TotEng   =     -1824.4442 KinEng   =         5.7220 Temp     =         8.1685 
PotEng   =     -1830.1662 E_bond   =        48.9747 E_angle  =        53.1183 
E_dihed  =        11.2784 E_impro  =         2.0939 E_vdwl   =     -1063.8703 
E_coul   =      -881.7611 E_long   =         0.0000 Press    =        -0.4512 
---------------- Step     1650 ----- CPU =      0.2500 (sec) ----------------
TotEng   =     -1824.4442 KinEng   =         6.1563 Temp     =         8.7886 
PotEng   =     -1830.6005 E_bond   =        48.0933 E_angle  =        53.7771 
E_dihed  =        11.0614 E_impro  =         2.2000 E_vdwl   =     -1064.2874 
E_coul   =      -881.4449 E_long   =         0.0000 Press    =        -0.4522 
---------------- Step     1700 ----- CPU =      0.2656 (sec) ----------------
TotEng   =     -1824.4442 KinEng   =         6.4821 Temp     =         9.2537 
PotEng   =     -1830.9263 E_bond   =        47.5278 E_angle  =        53.8386 
E_dihed  =        11.3058 E_impro  =         2.2017 E_vdwl   =     -1063.8973 
E_coul   =      -881.9028 E_long   =         0.0000 Press    =        -0.1702 
---------------- Step     1750 ----- CPU =      0.2812 (sec) ----------------
TotEng   =     -1824.4442 KinEng   =         6.8136 Temp     =         9.7270 
PotEng   =     -1831.2578 E_bond   =        47.0208 E_angle  =        53.2985 
E_dihed  =        11.6763 E_impro  =         2.0162 E_vdwl   =     -1063.0915 
E_coul   =      -882.1781 E_long   =         0.0000 Press    =         0.1157 
---------------- Step     1800 ----- CPU =      0.2812 (sec) ----------------
TotEng   =     -1824.4442 KinEng   =         7.1634 Temp     =        10.2263 
PotEng   =     -1831.6076 E_bond   =        46.7589 E_angle  =        52.8384 
E_dihed  =        11.9090 E_impro  =         1.8274 E_vdwl   =     -1062.4861 
E_coul   =      -882.4551 E_long   =         0.0000 Press    =         0.2100 
---------------- Step     1850 ----- CPU =      0.2969 (sec) ----------------
TotEng   =     -1824.4442 KinEng   =         7.2232 Temp     =        10.3116 
PotEng   =     -1831.6673 E_bond   =        46.9365 E_angle  =        52.6590 
E_dihed  =        11.9885 E_impro  =         1.7518 E_vdwl   =     -1062.1699 
E_coul   =      -882.8332 E_long   =         0.0000 Press    =         0.2428 
---------------- Step     1900 ----- CPU =      0.2969 (sec) ----------------
TotEng   =     -1824.4442 KinEng   =         7.6535 Temp     =        10.9259 
PotEng   =     -1832.0977 E_bond   =        47.7310 E_angle  =        52.5898 
E_dihed  =        11.9739 E_impro  =         1.7327 E_vdwl   =     -1063.1115 
E_coul   =      -883.0137 E_long   =         0.0000 Press    =         0.0816 
---------------- Step     1950 ----- CPU =      0.3125 (sec) ----------------
TotEng   =     -1824.4442 KinEng   =         8.3531 Temp     =        11.9247 
PotEng   =     -1832.7973 E_bond   =        48.4206 E_angle  =        52.2726 
E_dihed  =        11.7780 E_impro  =         1.8071 E_vdwl   =     -1064.0232 
E_coul   =      -883.0525 E_long   =         0.0000 Press    =        -0.2260 
---------------- Step     2000 ----- CPU =      0.3125 (sec) ----------------
TotEng   =     -1824.4442 KinEng   =         8.4304 Temp     =        12.0351 
PotEng   =     -1832.8746 E_bond   =        48.5953 E_angle  =        51.7212 
E_dihed  =        11.3324 E_impro  =         1.8073 E_vdwl   =     -1063.3500 
E_coul   =      -882.9808 E_long   =         0.0000 Press    =        -0.3917 
---------------- Step     2050 ----- CPU =      0.3281 (sec) ----------------
TotEng   =     -1824.4442 KinEng   =         8.3221 Temp     =        11.8804 
PotEng   =     -1832.7663 E_bond   =        48.7269 E_angle  =        51.1993 
E_dihed  =        11.0132 E_impro  =         1.5864 E_vdwl   =     -1063.3599 
E_coul   =      -881.9320 E_long   =         0.0000 Press    =        -0.8212 
---------------- Step     2100 ----- CPU =      0.3281 (sec) ----------------
TotEng   =     -1824.4442 KinEng   =         8.6447 Temp     =        12.3409 
PotEng   =     -1833.0889 E_bond   =        49.1886 E_angle  =        50.8035 
E_dihed  =        11.0301 E_impro  =         1.4803 E_vdwl   =     -1063.3469 
E_coul   =      -882.2445 E_long   =         0.0000 Press    =        -1.1969 
---------------- Step     2150 ----- CPU =      0.3437 (sec) ----------------
TotEng   =     -1824.4442 KinEng   =         8.6543 Temp     =        12.3546 
PotEng   =     -1833.0985 E_bond   =        49.9463 E_angle  =        50.2610 
E_dihed  =        11.2841 E_impro  =         1.4598 E_vdwl   =     -1063.2103 
E_coul   =      -882.8393 E_long   =         0.0000 Press    =        -1.1787 
---------------- Step     2200 ----- CPU =      0.3437 (sec) ----------------
TotEng   =     -1824.4442 KinEng   =         9.1502 Temp     =        13.0626 
PotEng   =     -1833.5944 E_bond   =        50.8865 E_angle  =        50.0031 
E_dihed  =        11.5717 E_impro  =         1.3566 E_vdwl   =     -1064.1413 
E_coul   =      -883.2711 E_long   =         0.0000 Press    =        -0.9734 
---------------- Step     2250 ----- CPU =      0.3593 (sec) ----------------
TotEng   =     -1824.4442 KinEng   =         9.5445 Temp     =        13.6254 
PotEng   =     -1833.9887 E_bond   =        51.3386 E_angle  =        50.2760 
E_dihed  =        11.5532 E_impro  =         1.2727 E_vdwl   =     -1063.8553 
E_coul   =      -884.5738 E_long   =         0.0000 Press    =        -0.3971 
---------------- Step     2300 ----- CPU =      0.3593 (sec) ----------------
TotEng   =     -1824.4442 KinEng   =         9.8782 Temp     =        14.1018 
PotEng   =     -1834.3224 E_bond   =        51.5206 E_angle  =        50.7300 
E_dihed  =        11.4266 E_impro  =         1.2593 E_vdwl   =     -1063.4517 
E_coul   =      -885.8073 E_long   =         0.0000 Press    =        -0.1680 
---------------- Step     2350 ----- CPU =      0.3750 (sec) ----------------
TotEng   =     -1824.4442 KinEng   =        10.6431 Temp     =        15.1938 
PotEng   =     -1835.0873 E_bond   =        51.8145 E_angle  =        51.1352 
E_dihed  =        11.4165 E_impro  =         1.3632 E_vdwl   =     -1064.7632 
E_coul   =      -886.0534 E_long   =         0.0000 Press    =        -0.4488 
---------------- Step     2400 ----- CPU =      0.3750 (sec) ----------------
TotEng   =     -1824.4442 KinEng   =        11.4340 Temp     =        16.3228 
PotEng   =     -1835.8782 E_bond   =        51.9155 E_angle  =        51.5339 
E_dihed  =        11.4225 E_impro  =         1.5395 E_vdwl   =     -1066.5413 
E_coul   =      -885.7483 E_long   =         0.0000 Press    =        -0.7670 
---------------- Step     2450 ----- CPU =      0.3906 (sec) ----------------
TotEng   =     -1824.4442 KinEng   =        11.8376 Temp     =        16.8990 
PotEng   =     -1836.2818 E_bond   =        50.9878 E_angle  =        51.5715 
E_dihed  =        11.3609 E_impro  =         1.6427 E_vdwl   =     -1066.7169 
E_coul   =      -885.1277 E_long   =         0.0000 Press    =        -1.0826 
---------------- Step     2500 ----- CPU =      0.3906 (sec) ----------------
TotEng   =     -1824.4442 KinEng   =        12.7179 Temp     =        18.1557 
PotEng   =     -1837.1621 E_bond   =        51.4301 E_angle  =        51.4863 
E_dihed  =        11.0429 E_impro  =         1.6774 E_vdwl   =     -1067.5487 
E_coul   =      -885.2501 E_long   =         0.0000 Press    =        -1.6743 
---------------- Step     2550 ----- CPU =      0.4062 (sec) ----------------
TotEng   =     -1824.4442 KinEng   =        13.2319 Temp     =        18.8895 
PotEng   =     -1837.6761 E_bond   =        53.2240 E_angle  =        51.8413 
E_dihed  =        10.6197 E_impro  =         1.6640 E_vdwl   =     -1068.3155 
E_coul   =      -886.7097 E_long   =         0.0000 Press    =        -1.9838 
---------------- Step     2600 ----- CPU =      0.4062 (sec) ----------------
TotEng   =     -1824.4442 KinEng   =        13.9623 Temp     =        19.9322 
PotEng   =     -1838.4066 E_bond   =        54.5169 E_angle  =        52.2161 
E_dihed  =        10.5186 E_impro  =         1.6110 E_vdwl   =     -1069.8918 
E_coul   =      -887.3774 E_long   =         0.0000 Press    =        -1.9417 
---------------- Step     2650 ----- CPU =      0.4218 (sec) ----------------
TotEng   =     -1824.4442 KinEng   =        14.9566 Temp     =        21.3517 
PotEng   =     -1839.4008 E_bond   =        55.1840 E_angle  =        52.7823 
E_dihed  =        10.6137 E_impro  =         1.5189 E_vdwl   =     -1071.2594 
E_coul   =      -888.2403 E_long   =         0.0000 Press    =        -1.7095 
---------------- Step     2700 ----- CPU =      0.4218 (sec) ----------------
TotEng   =     -1824.4442 KinEng   =        16.5721 Temp     =        23.6579 
PotEng   =     -1841.0163 E_bond   =        55.9933 E_angle  =        53.1313 
E_dihed  =        11.0123 E_impro  =         1.6139 E_vdwl   =     -1072.8297 
E_coul   =      -889.9374 E_long   =         0.0000 Press    =        -1.6427 
---------------- Step     2750 ----- CPU =      0.4375 (sec) ----------------
TotEng   =     -1824.4442 KinEng   =        18.6182 Temp     =        26.5789 
PotEng   =     -1843.0625 E_bond   =        56.8143 E_angle  =        53.1413 
E_dihed  =        11.3089 E_impro  =         1.8610 E_vdwl   =     -1074.1137 
E_coul   =      -892.0743 E_long   =         0.0000 Press    =        -1.3756 
---------------- Step     2800 ----- CPU =      0.4375 (sec) ----------------
TotEng   =     -1824.4443 KinEng   =        20.3285 Temp     =        29.0204 
PotEng   =     -1844.7728 E_bond   =        57.5280 E_angle  =        53.1129 
E_dihed  =        11.4072 E_impro  =         1.8894 E_vdwl   =     -1075.2341 
E_coul   =      -893.4761 E_long   =         0.0000 Press    =        -1.0308 
---------------- Step     2850 ----- CPU =      0.4531 (sec) ----------------
TotEng   =     -1824.4443 KinEng   =        21.0173 Temp     =        30.0037 
PotEng   =     -1845.4616 E_bond   =        57.3183 E_angle  =        53.3817 
E_dihed  =        11.2127 E_impro  =         1.9712 E_vdwl   =     -1075.7351 
E_coul   =      -893.6105 E_long   =         0.0000 Press    =        -0.7647 
---------------- Step     2900 ----- CPU =      0.4531 (sec) ----------------
TotEng   =     -1824.4443 KinEng   =        21.2786 Temp     =        30.3767 
PotEng   =     -1845.7228 E_bond   =        55.7667 E_angle  =        53.6932 
E_dihed  =        11.0519 E_impro  =         2.2677 E_vdwl   =     -1074.8165 
E_coul   =      -893.6858 E_long   =         0.0000 Press    =        -0.4335 
---------------- Step     2950 ----- CPU =      0.4688 (sec) ----------------
TotEng   =     -1824.4443 KinEng   =        21.7772 Temp     =        31.0885 
PotEng   =     -1846.2215 E_bond   =        55.8612 E_angle  =        53.1119 
E_dihed  =        11.1670 E_impro  =         2.4260 E_vdwl   =     -1074.5262 
E_coul   =      -894.2614 E_long   =         0.0000 Press    =         0.0558 
---------------- Step     3000 ----- CPU =      0.4688 (sec) ----------------
TotEng   =     -1824.4443 KinEng   =        21.9421 Temp     =        31.3239 
PotEng   =     -1846.3864 E_bond   =        57.2179 E_angle  =        51.9633 
E_dihed  =        11.6231 E_impro  =         2.4366 E_vdwl   =     -1074.3454 
E_coul   =      -895.2820 E_long   =         0.0000 Press    =         0.4920 
---------------- Step     3050 ----- CPU =      0.4844 (sec) ----------------
TotEng   =     -1824.4443 KinEng   =        21.8031 Temp     =        31.1254 
PotEng   =     -1846.2474 E_bond   =        56.5934 E_angle  =        51.5178 
E_dihed  =        12.4536 E_impro  =         2.4768 E_vdwl   =     -1074.6714 
E_coul   =      -894.6177 E_long   =         0.0000 Press    =         0.7043 
---------------- Step     3100 ----- CPU =      0.4844 (sec) ----------------
TotEng   =     -1824.4443 KinEng   =        21.6766 Temp     =        30.9448 
PotEng   =     -1846.1209 E_bond   =        54.0944 E_angle  =        52.1212 
E_dihed  =        12.6444 E_impro  =         2.3239 E_vdwl   =     -1073.8463 
E_coul   =      -893.4584 E_long   =         0.0000 Press    =         0.4975 
---------------- Step     3150 ----- CPU =      0.5000 (sec) ----------------
TotEng   =     -1824.4443 KinEng   =        21.5696 Temp     =        30.7921 
PotEng   =     -1846.0139 E_bond   =        52.4450 E_angle  =        52.4602 
E_dihed  =        11.9854 E_impro  =         2.1869 E_vdwl   =     -1072.2330 
E_coul   =      -892.8585 E_long   =         0.0000 Press    =        -0.1324 
---------------- Step     3200 ----- CPU =      0.5000 (sec) ----------------
TotEng   =     -1824.4443 KinEng   =        21.3705 Temp     =        30.5079 
PotEng   =     -1845.8148 E_bond   =        51.3376 E_angle  =        51.7877 
E_dihed  =        12.1841 E_impro  =         2.2945 E_vdwl   =     -1071.4049 
E_coul   =      -892.0139 E_long   =         0.0000 Press    =        -0.8076 
---------------- Step     3250 ----- CPU =      0.5156 (sec) ----------------
TotEng   =     -1824.4443 KinEng   =        20.8056 Temp     =        29.7015 
PotEng   =     -1845.2499 E_bond   =        50.8872 E_angle  =        50.8673 
E_dihed  =        12.5342 E_impro  =         2.2389 E_vdwl   =     -1070.2626 
E_coul   =      -891.5148 E_long   =         0.0000 Press    =        -0.9022 
---------------- Step     3300 ----- CPU =      0.5312 (sec) ----------------
TotEng   =     -1824.4443 KinEng   =        20.1620 Temp     =        28.7826 
PotEng   =     -1844.6063 E_bond   =        51.1981 E_angle  =        50.5492 
E_dihed  =        12.5028 E_impro  =         2.0750 E_vdwl   =     -1068.7476 
E_coul   =      -892.1837 E_long   =         0.0000 Press    =        -0.1669 
---------------- Step     3350 ----- CPU =      0.5312 (sec) ----------------
TotEng   =     -1824.4443 KinEng   =        19.2976 Temp     =        27.5488 
PotEng   =     -1843.7420 E_bond   =        52.0755 E_angle  =        50.8284 
E_dihed  =        11.9420 E_impro  =         1.9468 E_vdwl   =     -1068.7124 
E_coul   =      -891.8223 E_long   =         0.0000 Press    =         0.8147 
---------------- Step     3400 ----- CPU =      0.5469 (sec) ----------------
TotEng   =     -1824.4443 KinEng   =        18.6253 Temp     =        26.5890 
PotEng   =     -1843.0697 E_bond   =        53.1231 E_angle  =        50.9931 
E_dihed  =        11.6949 E_impro  =         2.0526 E_vdwl   =     -1069.0983 
E_coul   =      -891.8351 E_long   =         0.0000 Press    =         1.6902 
---------------- Step     3450 ----- CPU =      0.5469 (sec) ----------------
TotEng   =     -1824.4444 KinEng   =        18.4727 Temp     =        26.3711 
PotEng   =     -1842.9171 E_bond   =        54.3340 E_angle  =        51.0415 
E_dihed  =        12.1162 E_impro  =         2.4131 E_vdwl   =     -1069.8958 
E_coul   =      -892.9262 E_long   =         0.0000 Press    =         1.9254 
---------------- Step     3500 ----- CPU =      0.5625 (sec) ----------------
TotEng   =     -1824.4443 KinEng   =        18.5017 Temp     =        26.4124 
PotEng   =     -1842.9460 E_bond   =        54.5101 E_angle  =        51.5070 
E_dihed  =        12.1729 E_impro  =         2.6024 E_vdwl   =     -1068.9046 
E_coul   =      -894.8339 E_long   =         0.0000 Press    =         2.0566 
---------------- Step     3550 ----- CPU =      0.5625 (sec) ----------------
TotEng   =     -1824.4444 KinEng   =        18.5899 Temp     =        26.5384 
PotEng   =     -1843.0343 E_bond   =        53.7509 E_angle  =        51.1281 
E_dihed  =        11.8075 E_impro  =         2.5764 E_vdwl   =     -1067.9859 
E_coul   =      -894.3113 E_long   =         0.0000 Press    =         1.8179 
---------------- Step     3600 ----- CPU =      0.5781 (sec) ----------------
TotEng   =     -1824.4443 KinEng   =        17.4469 Temp     =        24.9066 
PotEng   =     -1841.8911 E_bond   =        53.6340 E_angle  =        50.2753 
E_dihed  =        11.7051 E_impro  =         2.5954 E_vdwl   =     -1066.1020 
E_coul   =      -893.9989 E_long   =         0.0000 Press    =         1.5460 
---------------- Step     3650 ----- CPU =      0.5781 (sec) ----------------
TotEng   =     -1824.4444 KinEng   =        18.4213 Temp     =        26.2977 
PotEng   =     -1842.8657 E_bond   =        53.6797 E_angle  =        49.7957 
E_dihed  =        12.2729 E_impro  =         2.6495 E_vdwl   =     -1064.5562 
E_coul   =      -896.7072 E_long   =         0.0000 Press    =         1.2168 
---------------- Step     3700 ----- CPU =      0.5937 (sec) ----------------
TotEng   =     -1824.4444 KinEng   =        18.1816 Temp     =        25.9556 
PotEng   =     -1842.6260 E_bond   =        53.5906 E_angle  =        50.1691 
E_dihed  =        13.2759 E_impro  =         2.6014 E_vdwl   =     -1064.2398 
E_coul   =      -898.0232 E_long   =         0.0000 Press    =         0.1080 
---------------- Step     3750 ----- CPU =      0.5937 (sec) ----------------
TotEng   =     -1824.4443 KinEng   =        18.1683 Temp     =        25.9365 
PotEng   =     -1842.6126 E_bond   =        54.0835 E_angle  =        50.9636 
E_dihed  =        12.6366 E_impro  =         2.4765 E_vdwl   =     -1064.9143 
E_coul   =      -897.8586 E_long   =         0.0000 Press    =        -0.0945 
---------------- Step     3800 ----- CPU =      0.6094 (sec) ----------------
TotEng   =     -1824.4444 KinEng   =        19.6366 Temp     =        28.0327 
PotEng   =     -1844.0810 E_bond   =        52.5499 E_angle  =        51.4200 
E_dihed  =        11.6833 E_impro  =         2.4954 E_vdwl   =     -1061.4610 
E_coul   =      -900.7686 E_long   =         0.0000 Press    =         1.2918 
---------------- Step     3850 ----- CPU =      0.6094 (sec) ----------------
TotEng   =     -1824.4445 KinEng   =        20.7580 Temp     =        29.6335 
PotEng   =     -1845.2025 E_bond   =        52.8128 E_angle  =        50.8175 
E_dihed  =        11.3298 E_impro  =         2.4100 E_vdwl   =     -1061.0481 
E_coul   =      -901.5244 E_long   =         0.0000 Press    =         2.0325 
---------------- Step     3900 ----- CPU =      0.6250 (sec) ----------------
TotEng   =     -1824.4444 KinEng   =        20.2743 Temp     =        28.9430 
PotEng   =     -1844.7186 E_bond   =        51.7827 E_angle  =        50.9057 
E_dihed  =        11.5674 E_impro  =         2.4426 E_vdwl   =     -1062.7166 
E_coul   =      -898.7004 E_long   =         0.0000 Press    =         2.2106 
---------------- Step     3950 ----- CPU =      0.6250 (sec) ----------------
TotEng   =     -1824.4445 KinEng   =        21.2729 Temp     =        30.3686 
PotEng   =     -1845.7173 E_bond   =        50.4896 E_angle  =        51.7875 
E_dihed  =        12.2162 E_impro  =         2.5407 E_vdwl   =     -1063.4785 
E_coul   =      -899.2728 E_long   =         0.0000 Press    =         1.9659 
---------------- Step     4000 ----- CPU =      0.6406 (sec) ----------------
TotEng   =     -1824.4445 KinEng   =        22.1216 Temp     =        31.5801 
PotEng   =     -1846.5660 E_bond   =        50.3961 E_angle  =        52.1317 
E_dihed  =        12.9624 E_impro  =         2.6754 E_vdwl   =     -1067.5315 
E_coul   =      -897.2001 E_long   =         0.0000 Press    =         0.6870 
---------------- Step     4050 ----- CPU =      0.6406 (sec) ----------------
TotEng   =     -1824.4444 KinEng   =        21.6225 Temp     =        30.8676 
PotEng   =     -1846.0669 E_bond   =        51.2637 E_angle  =        52.2286 
E_dihed  =        13.1752 E_impro  =         2.6779 E_vdwl   =     -1070.0692 
E_coul   =      -895.3431 E_long   =         0.0000 Press    =        -0.2538 
---------------- Step     4100 ----- CPU =      0.6562 (sec) ----------------
TotEng   =     -1824.4445 KinEng   =        21.3779 Temp     =        30.5185 
PotEng   =     -1845.8224 E_bond   =        54.1439 E_angle  =        52.1401 
E_dihed  =        12.7824 E_impro  =         2.4160 E_vdwl   =     -1069.5627 
E_coul   =      -897.7422 E_long   =         0.0000 Press    =        -0.5134 
---------------- Step     4150 ----- CPU =      0.6562 (sec) ----------------
TotEng   =     -1824.4445 KinEng   =        20.5570 Temp     =        29.3466 
PotEng   =     -1845.0015 E_bond   =        54.5923 E_angle  =        52.4291 
E_dihed  =        11.4450 E_impro  =         2.5587 E_vdwl   =     -1066.0882 
E_coul   =      -899.9383 E_long   =         0.0000 Press    =         0.2134 
---------------- Step     4200 ----- CPU =      0.6719 (sec) ----------------
TotEng   =     -1824.4504 KinEng   =        19.7129 Temp     =        28.1416 
PotEng   =     -1844.1633 E_bond   =        51.9472 E_angle  =        53.7595 
E_dihed  =        10.1593 E_impro  =         2.8678 E_vdwl   =     -1062.9738 
E_coul   =      -899.9233 E_long   =         0.0000 Press    =         1.0225 
---------------- Step     4250 ----- CPU =      0.6719 (sec) ----------------
TotEng   =     -1824.6202 KinEng   =        19.0386 Temp     =        27.1789 
PotEng   =     -1843.6588 E_bond   =        50.5893 E_angle  =        54.5273 
E_dihed  =         9.8975 E_impro  =         2.7616 E_vdwl   =     -1061.0760 
E_coul   =      -900.3584 E_long   =         0.0000 Press    =         0.9169 
---------------- Step     4300 ----- CPU =      0.6875 (sec) ----------------
TotEng   =     -1824.7831 KinEng   =        19.0080 Temp     =        27.1352 
PotEng   =     -1843.7911 E_bond   =        51.5519 E_angle  =        55.0171 
E_dihed  =        10.6878 E_impro  =         2.4923 E_vdwl   =     -1062.8339 
E_coul   =      -900.7063 E_long   =         0.0000 Press    =         0.4425 
---------------- Step     4350 ----- CPU =      0.6875 (sec) ----------------
TotEng   =     -1824.8831 KinEng   =        18.9390 Temp     =        27.0368 
PotEng   =     -1843.8221 E_bond   =        53.5965 E_angle  =        55.9006 
E_dihed  =        11.1041 E_impro  =         2.2588 E_vdwl   =     -1068.4389 
E_coul   =      -898.2431 E_long   =         0.0000 Press    =        -0.5299 
---------------- Step     4400 ----- CPU =      0.7031 (sec) ----------------
TotEng   =     -1824.8713 KinEng   =        17.5169 Temp     =        25.0066 
PotEng   =     -1842.3881 E_bond   =        55.5154 E_angle  =        56.2050 
E_dihed  =        11.4818 E_impro  =         2.3311 E_vdwl   =     -1067.4632 
E_coul   =      -900.4583 E_long   =         0.0000 Press    =        -0.7332 
---------------- Step     4450 ----- CPU =      0.7031 (sec) ----------------
TotEng   =     -1824.7944 KinEng   =        16.8397 Temp     =        24.0398 
PotEng   =     -1841.6341 E_bond   =        54.6598 E_angle  =        55.5569 
E_dihed  =        12.2145 E_impro  =         2.6354 E_vdwl   =     -1064.3780 
E_coul   =      -902.3227 E_long   =         0.0000 Press    =         0.7069 
---------------- Step     4500 ----- CPU =      0.7188 (sec) ----------------
TotEng   =     -1824.6660 KinEng   =        16.9663 Temp     =        24.2205 
PotEng   =     -1841.6323 E_bond   =        54.0740 E_angle  =        54.2470 
E_dihed  =        13.6062 E_impro  =         2.8739 E_vdwl   =     -1066.3623 
E_coul   =      -900.0710 E_long   =         0.0000 Press    =         1.1835 
---------------- Step     4550 ----- CPU =      0.7188 (sec) ----------------
TotEng   =     -1824.6153 KinEng   =        17.8870 Temp     =        25.5350 
PotEng   =     -1842.5024 E_bond   =        56.7474 E_angle  =        53.6166 
E_dihed  =        14.9312 E_impro  =         2.6525 E_vdwl   =     -1069.0035 
E_coul   =      -901.4467 E_long   =         0.0000 Press    =         0.8945 
---------------- Step     4600 ----- CPU =      0.7344 (sec) ----------------
TotEng   =     -1824.6231 KinEng   =        18.3633 Temp     =        26.2149 
PotEng   =     -1842.9863 E_bond   =        53.7462 E_angle  =        53.7883 
E_dihed  =        14.7279 E_impro  =         2.2184 E_vdwl   =     -1064.8314 
E_coul   =      -902.6357 E_long   =         0.0000 Press    =         1.3945 
---------------- Step     4650 ----- CPU =      0.7500 (sec) ----------------
TotEng   =     -1824.6345 KinEng   =        17.1620 Temp     =        24.4999 
PotEng   =     -1841.7964 E_bond   =        52.2805 E_angle  =        53.9082 
E_dihed  =        13.5071 E_impro  =         1.8462 E_vdwl   =     -1061.5239 
E_coul   =      -901.8144 E_long   =         0.0000 Press    =         1.3481 
---------------- Step     4700 ----- CPU =      0.7500 (sec) ----------------
TotEng   =     -1824.7237 KinEng   =        18.1961 Temp     =        25.9763 
PotEng   =     -1842.9199 E_bond   =        53.9556 E_angle  =        53.4496 
E_dihed  =        12.9844 E_impro  =         1.8529 E_vdwl   =     -1063.5213 
E_coul   =      -901.6410 E_long   =         0.0000 Press    =        -0.0433 
---------------- Step     4750 ----- CPU =      0.7656 (sec) ----------------
TotEng   =     -1824.9094 KinEng   =        19.0808 Temp     =        27.2392 
PotEng   =     -1843.9902 E_bond   =        54.6067 E_angle  =        52.8655 
E_dihed  =        13.0389 E_impro  =         1.9708 E_vdwl   =     -1065.0105 
E_coul   =      -901.4616 E_long   =         0.0000 Press    =        -0.9191 
---------------- Step     4800 ----- CPU =      0.7656 (sec) ----------------
TotEng   =     -1825.0410 KinEng   =        18.5321 Temp     =        26.4559 
PotEng   =     -1843.5731 E_bond   =        50.0335 E_angle  =        53.5752 
E_dihed  =        13.0308 E_impro  =         1.9201 E_vdwl   =     -1062.7221 
E_coul   =      -899.4105 E_long   =         0.0000 Press    =        -0.7105 
---------------- Step     4850 ----- CPU =      0.7812 (sec) ----------------
TotEng   =     -1825.0840 KinEng   =        17.3197 Temp     =        24.7251 
PotEng   =     -1842.4036 E_bond   =        49.8955 E_angle  =        54.0693 
E_dihed  =        12.3580 E_impro  =         1.7138 E_vdwl   =     -1061.7593 
E_coul   =      -898.6810 E_long   =         0.0000 Press    =        -0.5644 
---------------- Step     4900 ----- CPU =      0.7812 (sec) ----------------
TotEng   =     -1825.0930 KinEng   =        18.0594 Temp     =        25.7810 
PotEng   =     -1843.1523 E_bond   =        51.3195 E_angle  =        54.1338 
E_dihed  =        11.9646 E_impro  =         1.8116 E_vdwl   =     -1060.1300 
E_coul   =      -902.2519 E_long   =         0.0000 Press    =         0.2543 
---------------- Step     4950 ----- CPU =      0.7969 (sec) ----------------
TotEng   =     -1825.1208 KinEng   =        18.6416 Temp     =        26.6122 
PotEng   =     -1843.7624 E_bond   =        55.1801 E_angle  =        55.0368 
E_dihed  =        11.9195 E_impro  =         1.7119 E_vdwl   =     -1061.3283 
E_coul   =      -906.2823 E_long   =         0.0000 Press    =         0.3829 
---------------- Step     5000 ----- CPU =      0.7969 (sec) ----------------
TotEng   =     -1825.1619 KinEng   =        17.1718 Temp     =        24.5140 
PotEng   =     -1842.3337 E_bond   =        54.0531 E_angle  =        56.1218 
E_dihed  =        12.1397 E_impro  =         1.6079 E_vdwl   =     -1059.6720 
E_coul   =      -906.5842 E_long   =         0.0000 Press    =         1.3277 
---------------- Step     5050 ----- CPU =      0.8125 (sec) ----------------
TotEng   =     -1825.1597 KinEng   =        17.5844 Temp     =        25.1030 
PotEng   =     -1842.7440 E_bond   =        51.5976 E_angle  =        56.2655 
E_dihed  =        12.9631 E_impro  =         1.6430 E_vdwl   =     -1060.8138 
E_coul   =      -904.3995 E_long   =         0.0000 Press    =         1.5594 
---------------- Step     5100 ----- CPU =      0.8125 (sec) ----------------
TotEng   =     -1825.1696 KinEng   =        18.5294 Temp     =        26.4520 
PotEng   =     -1843.6990 E_bond   =        52.1344 E_angle  =        55.4006 
E_dihed  =        13.4931 E_impro  =         1.7764 E_vdwl   =     -1061.8153 
E_coul   =      -904.6882 E_long   =         0.0000 Press    =         0.7293 
---------------- Step     5150 ----- CPU =      0.8281 (sec) ----------------
TotEng   =     -1825.1351 KinEng   =        17.7232 Temp     =        25.3011 
PotEng   =     -1842.8583 E_bond   =        52.6426 E_angle  =        54.3431 
E_dihed  =        12.9973 E_impro  =         1.9303 E_vdwl   =     -1057.5437 
E_coul   =      -907.2278 E_long   =         0.0000 Press    =         1.1288 
---------------- Step     5200 ----- CPU =      0.8281 (sec) ----------------
TotEng   =     -1825.1239 KinEng   =        17.3426 Temp     =        24.7578 
PotEng   =     -1842.4665 E_bond   =        51.5312 E_angle  =        55.3218 
E_dihed  =        12.7356 E_impro  =         2.1032 E_vdwl   =     -1062.3794 
E_coul   =      -901.7788 E_long   =         0.0000 Press    =         0.2739 
---------------- Step     5250 ----- CPU =      0.8438 (sec) ----------------
TotEng   =     -1825.1461 KinEng   =        18.0087 Temp     =        25.7086 
PotEng   =     -1843.1548 E_bond   =        52.7935 E_angle  =        56.0941 
E_dihed  =        13.2063 E_impro  =         2.1530 E_vdwl   =     -1068.6883 
E_coul   =      -898.7134 E_long   =         0.0000 Press    =        -1.8054 
---------------- Step     5300 ----- CPU =      0.8438 (sec) ----------------
TotEng   =     -1825.0984 KinEng   =        19.0908 Temp     =        27.2534 
PotEng   =     -1844.1891 E_bond   =        55.0213 E_angle  =        55.7343 
E_dihed  =        12.9374 E_impro  =         1.8723 E_vdwl   =     -1067.7749 
E_coul   =      -901.9795 E_long   =         0.0000 Press    =        -1.7874 
---------------- Step     5350 ----- CPU =      0.8594 (sec) ----------------
TotEng   =     -1825.0913 KinEng   =        18.6690 Temp     =        26.6513 
PotEng   =     -1843.7603 E_bond   =        55.5245 E_angle  =        54.8156 
E_dihed  =        14.3420 E_impro  =         1.7594 E_vdwl   =     -1067.6710 
E_coul   =      -902.5308 E_long   =         0.0000 Press    =        -0.9151 
---------------- Step     5400 ----- CPU =      0.8594 (sec) ----------------
TotEng   =     -1825.1672 KinEng   =        18.7264 Temp     =        26.7332 
PotEng   =     -1843.8936 E_bond   =        57.1053 E_angle  =        53.7074 
E_dihed  =        15.7982 E_impro  =         1.8012 E_vdwl   =     -1067.2083 
E_coul   =      -905.0973 E_long   =         0.0000 Press    =         0.3046 
---------------- Step     5450 ----- CPU =      0.8750 (sec) ----------------
TotEng   =     -1825.1286 KinEng   =        18.3369 Temp     =        26.1773 
PotEng   =     -1843.4656 E_bond   =        54.8959 E_angle  =        54.1549 
E_dihed  =        15.7008 E_impro  =         2.1372 E_vdwl   =     -1067.8302 
E_coul   =      -902.5242 E_long   =         0.0000 Press    =         1.5302 
---------------- Step     5500 ----- CPU =      0.8750 (sec) ----------------
TotEng   =     -1825.0760 KinEng   =        17.5027 Temp     =        24.9863 
PotEng   =     -1842.5786 E_bond   =        55.4065 E_angle  =        54.6400 
E_dihed  =        14.5491 E_impro  =         2.3907 E_vdwl   =     -1067.3752 
E_coul   =      -902.1896 E_long   =         0.0000 Press    =         2.3190 
---------------- Step     5550 ----- CPU =      0.8906 (sec) ----------------
TotEng   =     -1824.9876 KinEng   =        16.2861 Temp     =        23.2496 
PotEng   =     -1841.2737 E_bond   =        57.0141 E_angle  =        54.4626 
E_dihed  =        14.1665 E_impro  =         2.0073 E_vdwl   =     -1067.1304 
E_coul   =      -901.7937 E_long   =         0.0000 Press    =         2.0213 
---------------- Step     5600 ----- CPU =      0.8906 (sec) ----------------
TotEng   =     -1824.9666 KinEng   =        17.1308 Temp     =        24.4555 
PotEng   =     -1842.0975 E_bond   =        56.7262 E_angle  =        54.7092 
E_dihed  =        14.9787 E_impro  =         1.8212 E_vdwl   =     -1068.4250 
E_coul   =      -901.9079 E_long   =         0.0000 Press    =         0.9552 
---------------- Step     5650 ----- CPU =      0.9062 (sec) ----------------
TotEng   =     -1824.9921 KinEng   =        16.4003 Temp     =        23.4126 
PotEng   =     -1841.3924 E_bond   =        58.1653 E_angle  =        53.2353 
E_dihed  =        16.4554 E_impro  =         1.9389 E_vdwl   =     -1070.0193 
E_coul   =      -901.1680 E_long   =         0.0000 Press    =         0.1501 
---------------- Step     5700 ----- CPU =      0.9062 (sec) ----------------
TotEng   =     -1824.9501 KinEng   =        16.3912 Temp     =        23.3995 
PotEng   =     -1841.3413 E_bond   =        56.2390 E_angle  =        53.1399 
E_dihed  =        16.4469 E_impro  =         1.7369 E_vdwl   =     -1069.5391 
E_coul   =      -899.3649 E_long   =         0.0000 Press    =        -0.9977 
---------------- Step     5750 ----- CPU =      0.9218 (sec) ----------------
TotEng   =     -1824.8410 KinEng   =        17.4231 Temp     =        24.8727 
PotEng   =     -1842.2641 E_bond   =        54.1701 E_angle  =        53.4023 
E_dihed  =        15.8600 E_impro  =         1.6069 E_vdwl   =     -1068.8283 
E_coul   =      -898.4752 E_long   =         0.0000 Press    =        -1.8427 
---------------- Step     5800 ----- CPU =      0.9218 (sec) ----------------
TotEng   =     -1824.7643 KinEng   =        17.8022 Temp     =        25.4140 
PotEng   =     -1842.5665 E_bond   =        53.8898 E_angle  =        54.1607 
E_dihed  =        16.7303 E_impro  =         1.6724 E_vdwl   =     -1069.9988 
E_coul   =      -899.0210 E_long   =         0.0000 Press    =        -1.7943 
---------------- Step     5850 ----- CPU =      0.9375 (sec) ----------------
TotEng   =     -1824.7424 KinEng   =        18.4340 Temp     =        26.3159 
PotEng   =     -1843.1764 E_bond   =        54.7247 E_angle  =        54.4627 
E_dihed  =        16.4030 E_impro  =         1.7751 E_vdwl   =     -1067.5670 
E_coul   =      -902.9749 E_long   =         0.0000 Press    =        -0.6033 
---------------- Step     5900 ----- CPU =      0.9375 (sec) ----------------
TotEng   =     -1824.7178 KinEng   =        18.1386 Temp     =        25.8942 
PotEng   =     -1842.8564 E_bond   =        54.3332 E_angle  =        54.3462 
E_dihed  =        14.9048 E_impro  =         2.1885 E_vdwl   =     -1064.4715 
E_coul   =      -904.1577 E_long   =         0.0000 Press    =         1.0974 
---------------- Step     5950 ----- CPU =      0.9531 (sec) ----------------
TotEng   =     -1824.6511 KinEng   =        16.9157 Temp     =        24.1484 
PotEng   =     -1841.5668 E_bond   =        54.8212 E_angle  =        55.2541 
E_dihed  =        14.0589 E_impro  =         2.4365 E_vdwl   =     -1067.1906 
E_coul   =      -900.9468 E_long   =         0.0000 Press    =         1.6773 
---------------- Step     6000 ----- CPU =      0.9688 (sec) ----------------
TotEng   =     -1824.6007 KinEng   =        17.0292 Temp     =        24.3104 
PotEng   =     -1841.6299 E_bond   =        54.8068 E_angle  =        58.2654 
E_dihed  =        15.6991 E_impro  =         2.2271 E_vdwl   =     -1067.1769 
E_coul   =      -905.4513 E_long   =         0.0000 Press    =         1.5629 
---------------- Step     6050 ----- CPU =      0.9688 (sec) ----------------
TotEng   =     -1824.5494 KinEng   =        17.8443 Temp     =        25.4740 
PotEng   =     -1842.3937 E_bond   =        52.6926 E_angle  =        57.5117 
E_dihed  =        14.8548 E_impro  =         2.1230 E_vdwl   =     -1067.0919 
E_coul   =      -902.4839 E_long   =         0.0000 Press    =         1.2778 
---------------- Step     6100 ----- CPU =      0.9844 (sec) ----------------
TotEng   =     -1824.5749 KinEng   =        16.9805 Temp     =        24.2408 
PotEng   =     -1841.5554 E_bond   =        53.6309 E_angle  =        55.6836 
E_dihed  =        13.6937 E_impro  =         1.9712 E_vdwl   =     -1066.1116 
E_coul   =      -900.4233 E_long   =         0.0000 Press    =         0.7729 
---------------- Step     6150 ----- CPU =      0.9844 (sec) ----------------
TotEng   =     -1824.6080 KinEng   =        17.7963 Temp     =        25.4055 
PotEng   =     -1842.4043 E_bond   =        54.9766 E_angle  =        55.4906 
E_dihed  =        13.1332 E_impro  =         2.0942 E_vdwl   =     -1066.6027 
E_coul   =      -901.4962 E_long   =         0.0000 Press    =         0.2008 
---------------- Step     6200 ----- CPU =      1.0000 (sec) ----------------
TotEng   =     -1824.5521 KinEng   =        16.8818 Temp     =        24.1000 
PotEng   =     -1841.4339 E_bond   =        54.9813 E_angle  =        54.7133 
E_dihed  =        13.8923 E_impro  =         1.9952 E_vdwl   =     -1065.5810 
E_coul   =      -901.4351 E_long   =         0.0000 Press    =        -0.1501 
---------------- Step     6250 ----- CPU =      1.0000 (sec) ----------------
TotEng   =     -1824.5331 KinEng   =        16.4998 Temp     =        23.5547 
PotEng   =     -1841.0329 E_bond   =        52.5611 E_angle  =        55.9499 
E_dihed  =        14.1027 E_impro  =         2.2255 E_vdwl   =     -1068.0916 
E_coul   =      -897.7805 E_long   =         0.0000 Press    =        -1.1770 
---------------- Step     6300 ----- CPU =      1.0156 (sec) ----------------
TotEng   =     -1824.4936 KinEng   =        17.4037 Temp     =        24.8451 
PotEng   =     -1841.8973 E_bond   =        54.5002 E_angle  =        55.9271 
E_dihed  =        14.8813 E_impro  =         2.3249 E_vdwl   =     -1071.4611 
E_coul   =      -898.0698 E_long   =         0.0000 Press    =        -0.9988 
---------------- Step     6350 ----- CPU =      1.0156 (sec) ----------------
TotEng   =     -1824.4456 KinEng   =        18.2680 Temp     =        26.0789 
PotEng   =     -1842.7136 E_bond   =        52.4946 E_angle  =        56.0260 
E_dihed  =        14.6116 E_impro  =         2.4219 E_vdwl   =     -1070.6601 
E_coul   =      -897.6077 E_long   =         0.0000 Press    =         0.6261 
---------------- Step     6400 ----- CPU =      1.0313 (sec) ----------------
TotEng   =     -1824.4829 KinEng   =        18.3588 Temp     =        26.2084 
PotEng   =     -1842.8416 E_bond   =        55.0325 E_angle  =        56.5641 
E_dihed  =        13.1601 E_impro  =         2.4896 E_vdwl   =     -1069.3799 
E_coul   =      -900.7079 E_long   =         0.0000 Press    =         0.7656 
---------------- Step     6450 ----- CPU =      1.0313 (sec) ----------------
TotEng   =     -1824.4795 KinEng   =        18.2443 Temp     =        26.0450 
PotEng   =     -1842.7238 E_bond   =        55.4628 E_angle  =        57.2706 
E_dihed  =        13.2104 E_impro  =         2.7025 E_vdwl   =     -1064.6462 
E_coul   =      -906.7239 E_long   =         0.0000 Press    =         1.8770 
---------------- Step     6500 ----- CPU =      1.0468 (sec) ----------------
TotEng   =     -1824.4483 KinEng   =        18.4550 Temp     =        26.3458 
PotEng   =     -1842.9033 E_bond   =        54.6951 E_angle  =        56.8442 
E_dihed  =        14.0564 E_impro  =         2.7502 E_vdwl   =     -1070.2099 
E_coul   =      -901.0393 E_long   =         0.0000 Press    =         1.6618 
---------------- Step     6550 ----- CPU =      1.0468 (sec) ----------------
TotEng   =     -1824.4460 KinEng   =        19.6043 Temp     =        27.9865 
PotEng   =     -1844.0503 E_bond   =        54.0677 E_angle  =        55.9952 
E_dihed  =        14.0911 E_impro  =         2.6048 E_vdwl   =     -1069.5685 
E_coul   =      -901.2406 E_long   =         0.0000 Press    =         0.6897 
---------------- Step     6600 ----- CPU =      1.0625 (sec) ----------------
TotEng   =     -1824.4530 KinEng   =        20.0924 Temp     =        28.6834 
PotEng   =     -1844.5455 E_bond   =        53.0763 E_angle  =        54.7061 
E_dihed  =        14.4386 E_impro  =         2.2717 E_vdwl   =     -1069.0701 
E_coul   =      -899.9680 E_long   =         0.0000 Press    =        -0.2567 
---------------- Step     6650 ----- CPU =      1.0625 (sec) ----------------
TotEng   =     -1824.5093 KinEng   =        19.8997 Temp     =        28.4082 
PotEng   =     -1844.4090 E_bond   =        50.3162 E_angle  =        54.2949 
E_dihed  =        13.9927 E_impro  =         1.8246 E_vdwl   =     -1064.4591 
E_coul   =      -900.3783 E_long   =         0.0000 Press    =         0.1930 
---------------- Step     6700 ----- CPU =      1.0781 (sec) ----------------
TotEng   =     -1824.4464 KinEng   =        21.1094 Temp     =        30.1352 
PotEng   =     -1845.5558 E_bond   =        52.6673 E_angle  =        53.6446 
E_dihed  =        13.8274 E_impro  =         2.0424 E_vdwl   =     -1065.2354 
E_coul   =      -902.5021 E_long   =         0.0000 Press    =        -1.1475 
---------------- Step     6750 ----- CPU =      1.0938 (sec) ----------------
TotEng   =     -1824.4462 KinEng   =        19.7980 Temp     =        28.2630 
PotEng   =     -1844.2442 E_bond   =        54.6908 E_angle  =        54.4774 
E_dihed  =        13.5215 E_impro  =         2.2036 E_vdwl   =     -1069.9294 
E_coul   =      -899.2081 E_long   =         0.0000 Press    =        -1.8041 
---------------- Step     6800 ----- CPU =      1.0938 (sec) ----------------
TotEng   =     -1824.4460 KinEng   =        18.7611 Temp     =        26.7828 
PotEng   =     -1843.2070 E_bond   =        54.1453 E_angle  =        55.9645 
E_dihed  =        13.9249 E_impro  =         1.9726 E_vdwl   =     -1069.7617 
E_coul   =      -899.4526 E_long   =         0.0000 Press    =        -0.5026 
---------------- Step     6850 ----- CPU =      1.1094 (sec) ----------------
TotEng   =     -1824.4462 KinEng   =        20.2462 Temp     =        28.9029 
PotEng   =     -1844.6925 E_bond   =        53.6550 E_angle  =        56.0218 
E_dihed  =        13.9708 E_impro  =         2.0161 E_vdwl   =     -1070.3303 
E_coul   =      -900.0258 E_long   =         0.0000 Press    =         0.1906 
---------------- Step     6900 ----- CPU =      1.1094 (sec) ----------------
TotEng   =     -1824.4462 KinEng   =        19.6655 Temp     =        28.0739 
PotEng   =     -1844.1117 E_bond   =        52.6507 E_angle  =        55.5687 
E_dihed  =        13.1994 E_impro  =         2.3097 E_vdwl   =     -1063.9793 
E_coul   =      -903.8610 E_long   =         0.0000 Press    =         1.9779 
---------------- Step     6950 ----- CPU =      1.1250 (sec) ----------------
TotEng   =     -1824.4460 KinEng   =        19.1694 Temp     =        27.3657 
PotEng   =     -1843.6154 E_bond   =        53.8577 E_angle  =        56.0699 
E_dihed  =        12.2594 E_impro  =         2.0348 E_vdwl   =     -1069.6522 
E_coul   =      -898.1851 E_long   =         0.0000 Press    =         2.2869 
---------------- Step     7000 ----- CPU =      1.1250 (sec) ----------------
TotEng   =     -1824.4461 KinEng   =        20.0457 Temp     =        28.6167 
PotEng   =     -1844.4918 E_bond   =        55.2715 E_angle  =        55.0738 
E_dihed  =        13.2157 E_impro  =         1.9993 E_vdwl   =     -1070.2096 
E_coul   =      -899.8425 E_long   =         0.0000 Press    =         1.8168 
---------------- Step     7050 ----- CPU =      1.1406 (sec) ----------------
TotEng   =     -1824.4461 KinEng   =        19.6827 Temp     =        28.0985 
PotEng   =     -1844.1288 E_bond   =        56.1022 E_angle  =        54.0186 
E_dihed  =        14.8148 E_impro  =         2.4056 E_vdwl   =     -1065.8798 
E_coul   =      -905.5903 E_long   =         0.0000 Press    =         1.8968 
---------------- Step     7100 ----- CPU =      1.1406 (sec) ----------------
TotEng   =     -1824.4462 KinEng   =        19.4025 Temp     =        27.6985 
PotEng   =     -1843.8488 E_bond   =        54.6153 E_angle  =        54.4058 
E_dihed  =        14.0875 E_impro  =         2.6029 E_vdwl   =     -1067.8409 
E_coul   =      -901.7195 E_long   =         0.0000 Press    =         1.2946 
---------------- Step     7150 ----- CPU =      1.1562 (sec) ----------------
TotEng   =     -1824.4465 KinEng   =        19.9634 Temp     =        28.4992 
PotEng   =     -1844.4099 E_bond   =        51.4859 E_angle  =        54.4211 
E_dihed  =        13.1224 E_impro  =         2.3593 E_vdwl   =     -1068.0672 
E_coul   =      -897.7314 E_long   =         0.0000 Press    =        -0.5174 
---------------- Step     7200 ----- CPU =      1.1562 (sec) ----------------
TotEng   =     -1824.4464 KinEng   =        20.8076 Temp     =        29.7044 
PotEng   =     -1845.2541 E_bond   =        48.1223 E_angle  =        54.1033 
E_dihed  =        13.5135 E_impro  =         2.3289 E_vdwl   =     -1068.0807 
E_coul   =      -895.2414 E_long   =         0.0000 Press    =        -1.7427 
---------------- Step     7250 ----- CPU =      1.1718 (sec) ----------------
TotEng   =     -1824.4462 KinEng   =        20.9850 Temp     =        29.9576 
PotEng   =     -1845.4312 E_bond   =        51.4596 E_angle  =        54.1363 
E_dihed  =        12.4443 E_impro  =         2.6297 E_vdwl   =     -1069.9254 
E_coul   =      -896.1757 E_long   =         0.0000 Press    =        -1.0316 
---------------- Step     7300 ----- CPU =      1.1718 (sec) ----------------
TotEng   =     -1824.4463 KinEng   =        21.2189 Temp     =        30.2916 
PotEng   =     -1845.6653 E_bond   =        54.1454 E_angle  =        54.4028 
E_dihed  =        12.4168 E_impro  =         2.8738 E_vdwl   =     -1070.6026 
E_coul   =      -898.9015 E_long   =         0.0000 Press    =        -0.4091 
---------------- Step     7350 ----- CPU =      1.1875 (sec) ----------------
TotEng   =     -1824.4461 KinEng   =        21.1475 Temp     =        30.1896 
PotEng   =     -1845.5937 E_bond   =        54.3407 E_angle  =        54.6538 
E_dihed  =        12.7438 E_impro  =         2.5088 E_vdwl   =     -1071.6219 
E_coul   =      -898.2188 E_long   =         0.0000 Press    =         0.3040 
---------------- Step     7400 ----- CPU =      1.1875 (sec) ----------------
TotEng   =     -1824.4464 KinEng   =        21.8517 Temp     =        31.1949 
PotEng   =     -1846.2981 E_bond   =        54.6392 E_angle  =        53.8235 
E_dihed  =        13.3549 E_impro  =         2.1307 E_vdwl   =     -1070.9052 
E_coul   =      -899.3413 E_long   =         0.0000 Press    =         0.2369 
---------------- Step     7450 ----- CPU =      1.2031 (sec) ----------------
TotEng   =     -1824.4463 KinEng   =        20.8529 Temp     =        29.7690 
PotEng   =     -1845.2991 E_bond   =        54.7052 E_angle  =        53.9496 
E_dihed  =        13.7591 E_impro  =         1.9474 E_vdwl   =     -1071.0835 
E_coul   =      -898.5771 E_long   =         0.0000 Press    =         1.2609 
---------------- Step     7500 ----- CPU =      1.2031 (sec) ----------------
TotEng   =     -1824.4464 KinEng   =        20.5727 Temp     =        29.3690 
PotEng   =     -1845.0191 E_bond   =        55.7060 E_angle  =        54.4415 
E_dihed  =        13.7147 E_impro  =         1.7343 E_vdwl   =     -1072.2939 
E_coul   =      -898.3218 E_long   =         0.0000 Press    =         0.7967 
---------------- Step     7550 ----- CPU =      1.2187 (sec) ----------------
TotEng   =     -1824.4463 KinEng   =        20.7468 Temp     =        29.6176 
PotEng   =     -1845.1932 E_bond   =        54.2614 E_angle  =        54.1255 
E_dihed  =        13.6067 E_impro  =         1.9393 E_vdwl   =     -1073.7155 
E_coul   =      -895.4105 E_long   =         0.0000 Press    =        -0.5334 
---------------- Step     7600 ----- CPU =      1.2187 (sec) ----------------
TotEng   =     -1824.4463 KinEng   =        21.1817 Temp     =        30.2383 
PotEng   =     -1845.6280 E_bond   =        50.4958 E_angle  =        52.6734 
E_dihed  =        13.2642 E_impro  =         1.9230 E_vdwl   =     -1068.4099 
E_coul   =      -895.5744 E_long   =         0.0000 Press    =         0.0144 
---------------- Step     7650 ----- CPU =      1.2344 (sec) ----------------
TotEng   =     -1824.4461 KinEng   =        20.4646 Temp     =        29.2147 
PotEng   =     -1844.9107 E_bond   =        51.1647 E_angle  =        52.4178 
E_dihed  =        13.8510 E_impro  =         2.5039 E_vdwl   =     -1069.9126 
E_coul   =      -894.9355 E_long   =         0.0000 Press    =        -0.4362 
---------------- Step     7700 ----- CPU =      1.2344 (sec) ----------------
TotEng   =     -1824.4461 KinEng   =        20.0161 Temp     =        28.5744 
PotEng   =     -1844.4621 E_bond   =        52.9746 E_angle  =        52.9064 
E_dihed  =        13.8164 E_impro  =         2.2749 E_vdwl   =     -1070.8570 
E_coul   =      -895.5774 E_long   =         0.0000 Press    =        -0.7180 
---------------- Step     7750 ----- CPU =      1.2500 (sec) ----------------
TotEng   =     -1824.4465 KinEng   =        20.3859 Temp     =        29.1023 
PotEng   =     -1844.8324 E_bond   =        51.5229 E_angle  =        53.6900 
E_dihed  =        12.9525 E_impro  =         2.1257 E_vdwl   =     -1072.3598 
E_coul   =      -892.7638 E_long   =         0.0000 Press    =        -0.5724 
---------------- Step     7800 ----- CPU =      1.2500 (sec) ----------------
TotEng   =     -1824.4464 KinEng   =        19.1483 Temp     =        27.3355 
PotEng   =     -1843.5947 E_bond   =        53.0189 E_angle  =        54.7573 
E_dihed  =        12.7703 E_impro  =         1.9014 E_vdwl   =     -1072.9045 
E_coul   =      -893.1381 E_long   =         0.0000 Press    =        -0.2378 
---------------- Step     7850 ----- CPU =      1.2656 (sec) ----------------
TotEng   =     -1824.4464 KinEng   =        19.5363 Temp     =        27.8894 
PotEng   =     -1843.9827 E_bond   =        52.7163 E_angle  =        54.3977 
E_dihed  =        12.8006 E_impro  =         2.6088 E_vdwl   =     -1070.3552 
E_coul   =      -896.1510 E_long   =         0.0000 Press    =         0.0112 
---------------- Step     7900 ----- CPU =      1.2656 (sec) ----------------
TotEng   =     -1824.4464 KinEng   =        18.9009 Temp     =        26.9823 
PotEng   =     -1843.3472 E_bond   =        53.9130 E_angle  =        54.9668 
E_dihed  =        12.5903 E_impro  =         2.5682 E_vdwl   =     -1069.7811 
E_coul   =      -897.6045 E_long   =         0.0000 Press    =         1.0411 
---------------- Step     7950 ----- CPU =      1.2812 (sec) ----------------
TotEng   =     -1824.4463 KinEng   =        18.3615 Temp     =        26.2124 
PotEng   =     -1842.8078 E_bond   =        54.2975 E_angle  =        54.0676 
E_dihed  =        12.3420 E_impro  =         2.3549 E_vdwl   =     -1070.1725 
E_coul   =      -895.6972 E_long   =         0.0000 Press    =         1.0844 
---------------- Step     8000 ----- CPU =      1.2812 (sec) ----------------
TotEng   =     -1824.4463 KinEng   =        19.1921 Temp     =        27.3981 
PotEng   =     -1843.6384 E_bond   =        55.2455 E_angle  =        54.3285 
E_dihed  =        13.4782 E_impro  =         2.1249 E_vdwl   =     -1064.6890 
E_coul   =      -904.1265 E_long   =         0.0000 Press    =         0.8858 
---------------- Step     8050 ----- CPU =      1.2968 (sec) ----------------
TotEng   =     -1824.4461 KinEng   =        19.0937 Temp     =        27.2576 
PotEng   =     -1843.5398 E_bond   =        54.4782 E_angle  =        54.7218 
E_dihed  =        12.9487 E_impro  =         2.0327 E_vdwl   =     -1074.4183 
E_coul   =      -893.3029 E_long   =         0.0000 Press    =        -1.7017 
---------------- Step     8100 ----- CPU =      1.2968 (sec) ----------------
TotEng   =     -1824.4462 KinEng   =        18.2961 Temp     =        26.1189 
PotEng   =     -1842.7423 E_bond   =        54.3100 E_angle  =        55.1454 
E_dihed  =        12.1668 E_impro  =         2.6860 E_vdwl   =     -1073.4769 
E_coul   =      -893.5735 E_long   =         0.0000 Press    =        -2.5948 
---------------- Step     8150 ----- CPU =      1.3125 (sec) ----------------
TotEng   =     -1824.4467 KinEng   =        18.9199 Temp     =        27.0095 
PotEng   =     -1843.3666 E_bond   =        50.5935 E_angle  =        53.9742 
E_dihed  =        11.5027 E_impro  =         2.2384 E_vdwl   =     -1068.2682 
E_coul   =      -893.4071 E_long   =         0.0000 Press    =        -1.5484 
---------------- Step     8200 ----- CPU =      1.3125 (sec) ----------------
TotEng   =     -1824.4463 KinEng   =        18.7476 Temp     =        26.7636 
PotEng   =     -1843.1940 E_bond   =        52.1360 E_angle  =        54.2303 
E_dihed  =        10.4993 E_impro  =         1.9592 E_vdwl   =     -1068.2657 
E_coul   =      -893.7529 E_long   =         0.0000 Press    =        -1.1255 
---------------- Step     8250 ----- CPU =      1.3281 (sec) ----------------
TotEng   =     -1824.4463 KinEng   =        18.6287 Temp     =        26.5938 
PotEng   =     -1843.0750 E_bond   =        52.1072 E_angle  =        53.3019 
E_dihed  =        11.7022 E_impro  =         2.3546 E_vdwl   =     -1070.7434 
E_coul   =      -891.7975 E_long   =         0.0000 Press    =         0.1391 
---------------- Step     8300 ----- CPU =      1.3281 (sec) ----------------
TotEng   =     -1824.4464 KinEng   =        17.3328 Temp     =        24.7439 
PotEng   =     -1841.7792 E_bond   =        55.5687 E_angle  =        53.0919 
E_dihed  =        13.3350 E_impro  =         2.3773 E_vdwl   =     -1070.6661 
E_coul   =      -895.4861 E_long   =         0.0000 Press    =        -0.0033 
---------------- Step     8350 ----- CPU =      1.3437 (sec) ----------------
TotEng   =     -1824.4464 KinEng   =        16.8740 Temp     =        24.0888 
PotEng   =     -1841.3204 E_bond   =        58.1907 E_angle  =        51.8318 
E_dihed  =        13.9419 E_impro  =         2.2736 E_vdwl   =     -1074.6295 
E_coul   =      -892.9289 E_long   =         0.0000 Press    =        -0.4484 
---------------- Step     8400 ----- CPU =      1.3593 (sec) ----------------
TotEng   =     -1824.4462 KinEng   =        16.2992 Temp     =        23.2683 
PotEng   =     -1840.7454 E_bond   =        56.6395 E_angle  =        51.7090 
E_dihed  =        13.1405 E_impro  =         1.7558 E_vdwl   =     -1072.4197 
E_coul   =      -891.5705 E_long   =         0.0000 Press    =        -0.5008 
---------------- Step     8450 ----- CPU =      1.3593 (sec) ----------------
TotEng   =     -1824.4463 KinEng   =        17.2692 Temp     =        24.6530 
PotEng   =     -1841.7155 E_bond   =        51.9744 E_angle  =        52.3692 
E_dihed  =        12.4438 E_impro  =         1.7233 E_vdwl   =     -1064.2119 
E_coul   =      -896.0143 E_long   =         0.0000 Press    =         0.4842 
---------------- Step     8500 ----- CPU =      1.3750 (sec) ----------------
TotEng   =     -1824.4466 KinEng   =        18.0156 Temp     =        25.7186 
PotEng   =     -1842.4622 E_bond   =        53.8938 E_angle  =        52.1911 
E_dihed  =        12.3622 E_impro  =         1.9488 E_vdwl   =     -1070.1233 
E_coul   =      -892.7348 E_long   =         0.0000 Press    =        -1.3422 
---------------- Step     8550 ----- CPU =      1.3750 (sec) ----------------
TotEng   =     -1824.4463 KinEng   =        17.0829 Temp     =        24.3870 
PotEng   =     -1841.5292 E_bond   =        55.1143 E_angle  =        52.1140 
E_dihed  =        12.5673 E_impro  =         2.4128 E_vdwl   =     -1071.0881 
E_coul   =      -892.6495 E_long   =         0.0000 Press    =        -1.1677 
---------------- Step     8600 ----- CPU =      1.3906 (sec) ----------------
TotEng   =     -1824.4464 KinEng   =        17.1906 Temp     =        24.5408 
PotEng   =     -1841.6370 E_bond   =        55.0307 E_angle  =        51.9062 
E_dihed  =        13.3089 E_impro  =         2.4571 E_vdwl   =     -1068.8608 
E_coul   =      -895.4791 E_long   =         0.0000 Press    =        -1.4060 
---------------- Step     8650 ----- CPU =      1.3906 (sec) ----------------
TotEng   =     -1824.4465 KinEng   =        16.7694 Temp     =        23.9395 
PotEng   =     -1841.2159 E_bond   =        54.0495 E_angle  =        52.4144 
E_dihed  =        13.5572 E_impro  =         2.0213 E_vdwl   =     -1071.2394 
E_coul   =      -892.0189 E_long   =         0.0000 Press    =        -1.9418 
---------------- Step     8700 ----- CPU =      1.4062 (sec) ----------------
TotEng   =     -1824.4467 KinEng   =        18.5861 Temp     =        26.5330 
PotEng   =     -1843.0328 E_bond   =        54.0470 E_angle  =        52.9867 
E_dihed  =        13.6096 E_impro  =         2.0356 E_vdwl   =     -1079.1107 
E_coul   =      -886.6010 E_long   =         0.0000 Press    =        -2.7359 
---------------- Step     8750 ----- CPU =      1.4062 (sec) ----------------
TotEng   =     -1824.4463 KinEng   =        16.8907 Temp     =        24.1127 
PotEng   =     -1841.3370 E_bond   =        55.6744 E_angle  =        52.4455 
E_dihed  =        13.1341 E_impro  =         2.2331 E_vdwl   =     -1073.5652 
E_coul   =      -891.2588 E_long   =         0.0000 Press    =        -1.8166 
---------------- Step     8800 ----- CPU =      1.4219 (sec) ----------------
TotEng   =     -1824.4465 KinEng   =        17.4181 Temp     =        24.8655 
PotEng   =     -1841.8646 E_bond   =        52.6396 E_angle  =        51.5126 
E_dihed  =        13.0411 E_impro  =         2.4999 E_vdwl   =     -1068.6722 
E_coul   =      -892.8856 E_long   =         0.0000 Press    =         0.4343 
---------------- Step     8850 ----- CPU =      1.4219 (sec) ----------------
TotEng   =     -1824.4468 KinEng   =        18.7607 Temp     =        26.7822 
PotEng   =     -1843.2075 E_bond   =        53.6984 E_angle  =        51.3793 
E_dihed  =        13.0488 E_impro  =         2.1531 E_vdwl   =     -1071.1604 
E_coul   =      -892.3267 E_long   =         0.0000 Press    =        -0.1202 
---------------- Step     8900 ----- CPU =      1.4375 (sec) ----------------
TotEng   =     -1824.4464 KinEng   =        18.1331 Temp     =        25.8863 
PotEng   =     -1842.5795 E_bond   =        55.5382 E_angle  =        52.1452 
E_dihed  =        13.2928 E_impro  =         2.1912 E_vdwl   =     -1075.4479 
E_coul   =      -890.2990 E_long   =         0.0000 Press    =        -0.0673 
---------------- Step     8950 ----- CPU =      1.4375 (sec) ----------------
TotEng   =     -1824.4465 KinEng   =        19.5854 Temp     =        27.9596 
PotEng   =     -1844.0319 E_bond   =        55.4084 E_angle  =        51.4700 
E_dihed  =        13.3347 E_impro  =         2.2648 E_vdwl   =     -1074.3252 
E_coul   =      -892.1846 E_long   =         0.0000 Press    =        -0.0333 
---------------- Step     9000 ----- CPU =      1.4531 (sec) ----------------
TotEng   =     -1824.4466 KinEng   =        18.5379 Temp     =        26.4641 
PotEng   =     -1842.9844 E_bond   =        55.1775 E_angle  =        51.0155 
E_dihed  =        12.5698 E_impro  =         1.8339 E_vdwl   =     -1075.8388 
E_coul   =      -887.7424 E_long   =         0.0000 Press    =        -0.9640 
---------------- Step     9050 ----- CPU =      1.4531 (sec) ----------------
TotEng   =     -1824.4461 KinEng   =        16.3030 Temp     =        23.2737 
PotEng   =     -1840.7491 E_bond   =        53.0003 E_angle  =        51.2305 
E_dihed  =        11.6737 E_impro  =         2.2035 E_vdwl   =     -1069.6069 
E_coul   =      -889.2502 E_long   =         0.0000 Press    =        -0.5708 
---------------- Step     9100 ----- CPU =      1.4687 (sec) ----------------
TotEng   =     -1824.4466 KinEng   =        17.4717 Temp     =        24.9421 
PotEng   =     -1841.9183 E_bond   =        52.8499 E_angle  =        53.5709 
E_dihed  =        12.3380 E_impro  =         2.3297 E_vdwl   =     -1071.9951 
E_coul   =      -891.0116 E_long   =         0.0000 Press    =        -0.6537 
---------------- Step     9150 ----- CPU =      1.4687 (sec) ----------------
TotEng   =     -1824.4468 KinEng   =        18.3244 Temp     =        26.1593 
PotEng   =     -1842.7712 E_bond   =        54.7312 E_angle  =        53.2255 
E_dihed  =        12.8507 E_impro  =         2.3295 E_vdwl   =     -1073.3924 
E_coul   =      -892.5157 E_long   =         0.0000 Press    =        -0.7591 
---------------- Step     9200 ----- CPU =      1.4844 (sec) ----------------
TotEng   =     -1824.4466 KinEng   =        18.3351 Temp     =        26.1747 
PotEng   =     -1842.7817 E_bond   =        58.0175 E_angle  =        52.5926 
E_dihed  =        12.7888 E_impro  =         2.2403 E_vdwl   =     -1074.4613 
E_coul   =      -893.9596 E_long   =         0.0000 Press    =        -1.8284 
---------------- Step     9250 ----- CPU =      1.4844 (sec) ----------------
TotEng   =     -1824.4464 KinEng   =        16.9658 Temp     =        24.2199 
PotEng   =     -1841.4121 E_bond   =        55.5006 E_angle  =        53.4425 
E_dihed  =        13.5865 E_impro  =         2.4313 E_vdwl   =     -1072.1398 
E_coul   =      -894.2332 E_long   =         0.0000 Press    =        -1.1931 
---------------- Step     9300 ----- CPU =      1.5000 (sec) ----------------
TotEng   =     -1824.4465 KinEng   =        18.3304 Temp     =        26.1680 
PotEng   =     -1842.7769 E_bond   =        55.7145 E_angle  =        53.2893 
E_dihed  =        12.7366 E_impro  =         2.7207 E_vdwl   =     -1071.3208 
E_coul   =      -895.9172 E_long   =         0.0000 Press    =        -0.3097 
---------------- Step     9350 ----- CPU =      1.5000 (sec) ----------------
TotEng   =     -1824.4469 KinEng   =        19.2686 Temp     =        27.5073 
PotEng   =     -1843.7155 E_bond   =        54.5473 E_angle  =        52.8389 
E_dihed  =        12.0379 E_impro  =         2.5118 E_vdwl   =     -1072.8166 
E_coul   =      -892.8349 E_long   =         0.0000 Press    =         0.4386 
---------------- Step     9400 ----- CPU =      1.5156 (sec) ----------------
TotEng   =     -1824.4466 KinEng   =        18.4152 Temp     =        26.2890 
PotEng   =     -1842.8618 E_bond   =        55.4811 E_angle  =        54.2250 
E_dihed  =        12.6628 E_impro  =         2.4459 E_vdwl   =     -1077.2860 
E_coul   =      -890.3905 E_long   =         0.0000 Press    =         0.0631 
---------------- Step     9450 ----- CPU =      1.5156 (sec) ----------------
TotEng   =     -1824.4469 KinEng   =        20.4235 Temp     =        29.1560 
PotEng   =     -1844.8704 E_bond   =        54.7024 E_angle  =        52.8253 
E_dihed  =        12.7865 E_impro  =         2.1428 E_vdwl   =     -1078.1560 
E_coul   =      -889.1714 E_long   =         0.0000 Press    =        -0.3187 
---------------- Step     9500 ----- CPU =      1.5312 (sec) ----------------
TotEng   =     -1824.4466 KinEng   =        19.0033 Temp     =        27.1286 
PotEng   =     -1843.4499 E_bond   =        58.3668 E_angle  =        51.9370 
[...]
PotEng   =     -1846.2663 E_bond   =        58.3456 E_angle  =        55.0098 
E_dihed  =        15.2868 E_impro  =         2.0213 E_vdwl   =     -1077.1150 
E_coul   =      -899.8148 E_long   =         0.0000 Press    =        -0.0790 
---------------- Step    77800 ----- CPU =     12.4688 (sec) ----------------
TotEng   =     -1824.4493 KinEng   =        21.8350 Temp     =        31.1710 
PotEng   =     -1846.2843 E_bond   =        57.3656 E_angle  =        55.6171 
E_dihed  =        12.9379 E_impro  =         2.3997 E_vdwl   =     -1078.1546 
E_coul   =      -896.4499 E_long   =         0.0000 Press    =        -0.8584 
---------------- Step    77850 ----- CPU =     12.4844 (sec) ----------------
TotEng   =     -1824.4489 KinEng   =        21.0430 Temp     =        30.0404 
PotEng   =     -1845.4919 E_bond   =        55.3823 E_angle  =        55.0843 
E_dihed  =        13.4828 E_impro  =         2.6632 E_vdwl   =     -1076.7563 
E_coul   =      -895.3482 E_long   =         0.0000 Press    =         0.5409 
---------------- Step    77900 ----- CPU =     12.4844 (sec) ----------------
TotEng   =     -1824.4491 KinEng   =        21.5189 Temp     =        30.7197 
PotEng   =     -1845.9679 E_bond   =        61.7782 E_angle  =        56.1432 
E_dihed  =        14.5579 E_impro  =         1.9240 E_vdwl   =     -1076.6871 
E_coul   =      -903.6843 E_long   =         0.0000 Press    =         0.8735 
---------------- Step    77950 ----- CPU =     12.5000 (sec) ----------------
TotEng   =     -1824.4489 KinEng   =        20.3448 Temp     =        29.0436 
PotEng   =     -1844.7937 E_bond   =        59.4207 E_angle  =        55.9738 
E_dihed  =        15.5249 E_impro  =         2.1641 E_vdwl   =     -1078.0671 
E_coul   =      -899.8101 E_long   =         0.0000 Press    =         1.9373 
---------------- Step    78000 ----- CPU =     12.5000 (sec) ----------------
TotEng   =     -1824.4481 KinEng   =        20.6854 Temp     =        29.5299 
PotEng   =     -1845.1335 E_bond   =        59.0228 E_angle  =        55.2811 
E_dihed  =        14.0180 E_impro  =         2.5153 E_vdwl   =     -1076.8665 
E_coul   =      -899.1042 E_long   =         0.0000 Press    =         0.9579 
---------------- Step    78050 ----- CPU =     12.5156 (sec) ----------------
TotEng   =     -1824.4485 KinEng   =        19.4931 Temp     =        27.8278 
PotEng   =     -1843.9416 E_bond   =        60.0586 E_angle  =        54.7957 
E_dihed  =        13.4290 E_impro  =         2.0765 E_vdwl   =     -1075.2315 
E_coul   =      -899.0700 E_long   =         0.0000 Press    =        -0.2449 
---------------- Step    78100 ----- CPU =     12.5156 (sec) ----------------
TotEng   =     -1824.4486 KinEng   =        20.8346 Temp     =        29.7429 
PotEng   =     -1845.2832 E_bond   =        56.4099 E_angle  =        54.9522 
E_dihed  =        14.4343 E_impro  =         1.9208 E_vdwl   =     -1075.4028 
E_coul   =      -897.5975 E_long   =         0.0000 Press    =        -0.8702 
---------------- Step    78150 ----- CPU =     12.5312 (sec) ----------------
TotEng   =     -1824.4488 KinEng   =        21.5633 Temp     =        30.7832 
PotEng   =     -1846.0121 E_bond   =        56.5161 E_angle  =        55.5213 
E_dihed  =        13.0061 E_impro  =         2.5113 E_vdwl   =     -1073.5388 
E_coul   =      -900.0280 E_long   =         0.0000 Press    =        -0.6584 
---------------- Step    78200 ----- CPU =     12.5312 (sec) ----------------
TotEng   =     -1824.4496 KinEng   =        20.9885 Temp     =        29.9626 
PotEng   =     -1845.4381 E_bond   =        59.1933 E_angle  =        56.2886 
E_dihed  =        10.7168 E_impro  =         2.2128 E_vdwl   =     -1076.4294 
E_coul   =      -897.4202 E_long   =         0.0000 Press    =        -1.2434 
---------------- Step    78250 ----- CPU =     12.5468 (sec) ----------------
TotEng   =     -1824.4490 KinEng   =        22.3550 Temp     =        31.9133 
PotEng   =     -1846.8039 E_bond   =        58.0006 E_angle  =        56.2345 
E_dihed  =        12.5717 E_impro  =         1.8854 E_vdwl   =     -1072.3226 
E_coul   =      -903.1736 E_long   =         0.0000 Press    =        -0.3584 
---------------- Step    78300 ----- CPU =     12.5468 (sec) ----------------
TotEng   =     -1824.4485 KinEng   =        22.0279 Temp     =        31.4464 
PotEng   =     -1846.4764 E_bond   =        58.5110 E_angle  =        53.9811 
E_dihed  =        14.6525 E_impro  =         2.4217 E_vdwl   =     -1072.9463 
E_coul   =      -903.0964 E_long   =         0.0000 Press    =        -0.6154 
---------------- Step    78350 ----- CPU =     12.5625 (sec) ----------------
TotEng   =     -1824.4492 KinEng   =        21.9750 Temp     =        31.3709 
PotEng   =     -1846.4241 E_bond   =        58.4675 E_angle  =        55.6003 
E_dihed  =        14.0274 E_impro  =         1.7537 E_vdwl   =     -1074.8667 
E_coul   =      -901.4064 E_long   =         0.0000 Press    =         0.3209 
---------------- Step    78400 ----- CPU =     12.5625 (sec) ----------------
TotEng   =     -1824.4493 KinEng   =        22.5138 Temp     =        32.1401 
PotEng   =     -1846.9631 E_bond   =        55.0219 E_angle  =        56.1124 
E_dihed  =        13.0096 E_impro  =         1.6570 E_vdwl   =     -1077.3162 
E_coul   =      -895.4479 E_long   =         0.0000 Press    =         0.8229 
---------------- Step    78450 ----- CPU =     12.5781 (sec) ----------------
TotEng   =     -1824.4478 KinEng   =        20.1067 Temp     =        28.7038 
PotEng   =     -1844.5546 E_bond   =        55.1890 E_angle  =        56.6442 
E_dihed  =        14.6014 E_impro  =         2.5413 E_vdwl   =     -1076.6906 
E_coul   =      -896.8399 E_long   =         0.0000 Press    =         0.1886 
---------------- Step    78500 ----- CPU =     12.5781 (sec) ----------------
TotEng   =     -1824.4496 KinEng   =        21.8881 Temp     =        31.2469 
PotEng   =     -1846.3378 E_bond   =        57.0601 E_angle  =        57.0971 
E_dihed  =        15.1124 E_impro  =         2.6442 E_vdwl   =     -1080.0500 
E_coul   =      -898.2016 E_long   =         0.0000 Press    =         0.9877 
---------------- Step    78550 ----- CPU =     12.5937 (sec) ----------------
TotEng   =     -1824.4495 KinEng   =        21.8493 Temp     =        31.1914 
PotEng   =     -1846.2988 E_bond   =        61.0643 E_angle  =        54.8019 
E_dihed  =        14.1068 E_impro  =         2.0279 E_vdwl   =     -1084.5258 
E_coul   =      -893.7738 E_long   =         0.0000 Press    =         1.7950 
---------------- Step    78600 ----- CPU =     12.5937 (sec) ----------------
TotEng   =     -1824.4484 KinEng   =        21.8963 Temp     =        31.2586 
PotEng   =     -1846.3448 E_bond   =        54.3036 E_angle  =        54.1890 
E_dihed  =        13.2150 E_impro  =         1.7456 E_vdwl   =     -1074.7594 
E_coul   =      -895.0384 E_long   =         0.0000 Press    =         1.6615 
---------------- Step    78650 ----- CPU =     12.6094 (sec) ----------------
TotEng   =     -1824.4486 KinEng   =        21.9313 Temp     =        31.3084 
PotEng   =     -1846.3798 E_bond   =        58.7571 E_angle  =        54.6698 
E_dihed  =        12.4472 E_impro  =         1.6447 E_vdwl   =     -1079.7341 
E_coul   =      -894.1645 E_long   =         0.0000 Press    =         0.3150 
---------------- Step    78700 ----- CPU =     12.6094 (sec) ----------------
TotEng   =     -1824.4483 KinEng   =        21.1193 Temp     =        30.1494 
PotEng   =     -1845.5676 E_bond   =        57.1297 E_angle  =        52.2774 
E_dihed  =        15.0600 E_impro  =         2.4287 E_vdwl   =     -1076.2420 
E_coul   =      -896.2215 E_long   =         0.0000 Press    =         0.8096 
---------------- Step    78750 ----- CPU =     12.6250 (sec) ----------------
TotEng   =     -1824.4474 KinEng   =        20.0269 Temp     =        28.5898 
PotEng   =     -1844.4744 E_bond   =        60.7404 E_angle  =        52.7089 
E_dihed  =        15.2808 E_impro  =         1.6107 E_vdwl   =     -1074.6172 
E_coul   =      -900.1980 E_long   =         0.0000 Press    =        -0.9269 
---------------- Step    78800 ----- CPU =     12.6250 (sec) ----------------
TotEng   =     -1824.4489 KinEng   =        21.4112 Temp     =        30.5660 
PotEng   =     -1845.8601 E_bond   =        58.4442 E_angle  =        53.5075 
E_dihed  =        13.3636 E_impro  =         1.7638 E_vdwl   =     -1075.6046 
E_coul   =      -897.3347 E_long   =         0.0000 Press    =        -2.1997 
---------------- Step    78850 ----- CPU =     12.6406 (sec) ----------------
TotEng   =     -1824.4486 KinEng   =        21.2323 Temp     =        30.3107 
PotEng   =     -1845.6810 E_bond   =        57.7906 E_angle  =        54.0281 
E_dihed  =        12.4327 E_impro  =         2.2187 E_vdwl   =     -1079.2766 
E_coul   =      -892.8745 E_long   =         0.0000 Press    =        -1.0917 
---------------- Step    78900 ----- CPU =     12.6406 (sec) ----------------
TotEng   =     -1824.4500 KinEng   =        23.2316 Temp     =        33.1648 
PotEng   =     -1847.6816 E_bond   =        56.5722 E_angle  =        53.4340 
E_dihed  =        12.3401 E_impro  =         1.8315 E_vdwl   =     -1077.5744 
E_coul   =      -894.2849 E_long   =         0.0000 Press    =        -0.5306 
---------------- Step    78950 ----- CPU =     12.6563 (sec) ----------------
TotEng   =     -1824.4485 KinEng   =        20.4619 Temp     =        29.2109 
PotEng   =     -1844.9105 E_bond   =        58.0934 E_angle  =        53.7576 
E_dihed  =        14.6530 E_impro  =         1.9500 E_vdwl   =     -1078.4351 
E_coul   =      -894.9292 E_long   =         0.0000 Press    =        -0.3557 
---------------- Step    79000 ----- CPU =     12.6563 (sec) ----------------
TotEng   =     -1824.4472 KinEng   =        20.7235 Temp     =        29.5842 
PotEng   =     -1845.1707 E_bond   =        57.3670 E_angle  =        53.7442 
E_dihed  =        14.5286 E_impro  =         2.0649 E_vdwl   =     -1083.4027 
E_coul   =      -889.4726 E_long   =         0.0000 Press    =         0.9716 
---------------- Step    79050 ----- CPU =     12.6719 (sec) ----------------
TotEng   =     -1824.4482 KinEng   =        20.6376 Temp     =        29.4617 
PotEng   =     -1845.0859 E_bond   =        61.6675 E_angle  =        54.0858 
E_dihed  =        14.6074 E_impro  =         2.3899 E_vdwl   =     -1074.2762 
E_coul   =      -903.5603 E_long   =         0.0000 Press    =         2.0300 
---------------- Step    79100 ----- CPU =     12.6719 (sec) ----------------
TotEng   =     -1824.4479 KinEng   =        19.8034 Temp     =        28.2708 
PotEng   =     -1844.2513 E_bond   =        60.9121 E_angle  =        54.2299 
E_dihed  =        15.7471 E_impro  =         1.7724 E_vdwl   =     -1079.6159 
E_coul   =      -897.2968 E_long   =         0.0000 Press    =         1.1312 
---------------- Step    79150 ----- CPU =     12.6875 (sec) ----------------
TotEng   =     -1824.4478 KinEng   =        20.5750 Temp     =        29.3723 
PotEng   =     -1845.0228 E_bond   =        57.2926 E_angle  =        55.2225 
E_dihed  =        15.1164 E_impro  =         1.7551 E_vdwl   =     -1076.5734 
E_coul   =      -897.8360 E_long   =         0.0000 Press    =         2.4016 
---------------- Step    79200 ----- CPU =     12.7031 (sec) ----------------
TotEng   =     -1824.4493 KinEng   =        21.9719 Temp     =        31.3665 
PotEng   =     -1846.4212 E_bond   =        57.6830 E_angle  =        53.2903 
E_dihed  =        13.9021 E_impro  =         2.7097 E_vdwl   =     -1072.6744 
E_coul   =      -901.3318 E_long   =         0.0000 Press    =         0.7121 
---------------- Step    79250 ----- CPU =     12.7031 (sec) ----------------
TotEng   =     -1824.4495 KinEng   =        22.8903 Temp     =        32.6775 
PotEng   =     -1847.3397 E_bond   =        58.7900 E_angle  =        52.7440 
E_dihed  =        13.6928 E_impro  =         2.0816 E_vdwl   =     -1079.4548 
E_coul   =      -895.1934 E_long   =         0.0000 Press    =        -1.8291 
---------------- Step    79300 ----- CPU =     12.7187 (sec) ----------------
TotEng   =     -1824.4481 KinEng   =        20.2266 Temp     =        28.8750 
PotEng   =     -1844.6747 E_bond   =        58.1443 E_angle  =        53.8935 
E_dihed  =        15.3319 E_impro  =         1.6584 E_vdwl   =     -1075.1913 
E_coul   =      -898.5115 E_long   =         0.0000 Press    =        -0.2135 
---------------- Step    79350 ----- CPU =     12.7187 (sec) ----------------
TotEng   =     -1824.4486 KinEng   =        21.5437 Temp     =        30.7552 
PotEng   =     -1845.9924 E_bond   =        59.0818 E_angle  =        54.9839 
E_dihed  =        14.0667 E_impro  =         1.9124 E_vdwl   =     -1082.0959 
E_coul   =      -893.9413 E_long   =         0.0000 Press    =        -2.8627 
---------------- Step    79400 ----- CPU =     12.7344 (sec) ----------------
TotEng   =     -1824.4490 KinEng   =        20.9800 Temp     =        29.9505 
PotEng   =     -1845.4291 E_bond   =        56.6760 E_angle  =        55.4796 
E_dihed  =        12.2714 E_impro  =         1.8820 E_vdwl   =     -1068.2306 
E_coul   =      -903.5074 E_long   =         0.0000 Press    =        -0.7196 
---------------- Step    79450 ----- CPU =     12.7344 (sec) ----------------
TotEng   =     -1824.4478 KinEng   =        21.1790 Temp     =        30.2346 
PotEng   =     -1845.6268 E_bond   =        56.0198 E_angle  =        55.2343 
E_dihed  =        11.7788 E_impro  =         2.0380 E_vdwl   =     -1080.5884 
E_coul   =      -890.1093 E_long   =         0.0000 Press    =        -0.9809 
---------------- Step    79500 ----- CPU =     12.7500 (sec) ----------------
TotEng   =     -1824.4482 KinEng   =        21.2180 Temp     =        30.2902 
PotEng   =     -1845.6662 E_bond   =        54.8665 E_angle  =        54.5889 
E_dihed  =        12.8904 E_impro  =         2.4548 E_vdwl   =     -1074.5698 
E_coul   =      -895.8970 E_long   =         0.0000 Press    =         0.7705 
---------------- Step    79550 ----- CPU =     12.7500 (sec) ----------------
TotEng   =     -1824.4482 KinEng   =        20.8086 Temp     =        29.7057 
PotEng   =     -1845.2568 E_bond   =        59.0612 E_angle  =        54.7321 
E_dihed  =        14.2725 E_impro  =         2.0257 E_vdwl   =     -1074.4978 
E_coul   =      -900.8505 E_long   =         0.0000 Press    =         1.7099 
---------------- Step    79600 ----- CPU =     12.7656 (sec) ----------------
TotEng   =     -1824.4483 KinEng   =        21.9135 Temp     =        31.2831 
PotEng   =     -1846.3618 E_bond   =        57.6095 E_angle  =        56.8036 
E_dihed  =        13.3879 E_impro  =         2.4252 E_vdwl   =     -1078.7783 
E_coul   =      -897.8096 E_long   =         0.0000 Press    =         1.2911 
---------------- Step    79650 ----- CPU =     12.7656 (sec) ----------------
TotEng   =     -1824.4487 KinEng   =        20.5225 Temp     =        29.2973 
PotEng   =     -1844.9712 E_bond   =        58.7719 E_angle  =        56.0598 
E_dihed  =        13.1964 E_impro  =         2.6045 E_vdwl   =     -1077.8563 
E_coul   =      -897.7475 E_long   =         0.0000 Press    =         0.5212 
---------------- Step    79700 ----- CPU =     12.7813 (sec) ----------------
TotEng   =     -1824.4484 KinEng   =        20.9222 Temp     =        29.8679 
PotEng   =     -1845.3706 E_bond   =        57.3583 E_angle  =        54.8769 
E_dihed  =        14.3464 E_impro  =         2.0413 E_vdwl   =     -1075.6022 
E_coul   =      -898.3913 E_long   =         0.0000 Press    =         0.6473 
---------------- Step    79750 ----- CPU =     12.7813 (sec) ----------------
TotEng   =     -1824.4475 KinEng   =        19.4707 Temp     =        27.7958 
PotEng   =     -1843.9181 E_bond   =        61.2125 E_angle  =        55.4039 
E_dihed  =        13.9390 E_impro  =         2.4076 E_vdwl   =     -1075.0657 
E_coul   =      -901.8155 E_long   =         0.0000 Press    =         0.1039 
---------------- Step    79800 ----- CPU =     12.7969 (sec) ----------------
TotEng   =     -1824.4484 KinEng   =        21.1379 Temp     =        30.1758 
PotEng   =     -1845.5863 E_bond   =        59.0454 E_angle  =        56.1440 
E_dihed  =        12.4238 E_impro  =         2.2481 E_vdwl   =     -1081.4991 
E_coul   =      -893.9486 E_long   =         0.0000 Press    =        -1.2467 
---------------- Step    79850 ----- CPU =     12.7969 (sec) ----------------
TotEng   =     -1824.4490 KinEng   =        20.9682 Temp     =        29.9336 
PotEng   =     -1845.4172 E_bond   =        57.0380 E_angle  =        54.1001 
E_dihed  =        12.4705 E_impro  =         2.1127 E_vdwl   =     -1072.3714 
E_coul   =      -898.7672 E_long   =         0.0000 Press    =        -0.6602 
---------------- Step    79900 ----- CPU =     12.8125 (sec) ----------------
TotEng   =     -1824.4494 KinEng   =        22.2112 Temp     =        31.7081 
PotEng   =     -1846.6606 E_bond   =        55.0681 E_angle  =        53.2603 
E_dihed  =        14.0577 E_impro  =         1.8454 E_vdwl   =     -1076.1975 
E_coul   =      -894.6946 E_long   =         0.0000 Press    =        -0.6535 
---------------- Step    79950 ----- CPU =     12.8125 (sec) ----------------
TotEng   =     -1824.4495 KinEng   =        22.0682 Temp     =        31.5039 
PotEng   =     -1846.5177 E_bond   =        56.1674 E_angle  =        54.3969 
E_dihed  =        14.3155 E_impro  =         1.9621 E_vdwl   =     -1075.6935 
E_coul   =      -897.6660 E_long   =         0.0000 Press    =        -0.7357 
---------------- Step    80000 ----- CPU =     12.8281 (sec) ----------------
TotEng   =     -1824.4493 KinEng   =        22.1744 Temp     =        31.6556 
PotEng   =     -1846.6238 E_bond   =        55.5510 E_angle  =        54.9490 
E_dihed  =        14.2354 E_impro  =         1.7967 E_vdwl   =     -1075.5742 
E_coul   =      -897.5817 E_long   =         0.0000 Press    =        -0.5546 
---------------- Step    80050 ----- CPU =     12.8281 (sec) ----------------
TotEng   =     -1824.4484 KinEng   =        21.0397 Temp     =        30.0357 
PotEng   =     -1845.4881 E_bond   =        60.1694 E_angle  =        54.2373 
E_dihed  =        14.6735 E_impro  =         1.8323 E_vdwl   =     -1084.3597 
E_coul   =      -892.0408 E_long   =         0.0000 Press    =        -2.4032 
---------------- Step    80054 ----- CPU =     12.8281 (sec) ----------------
TotEng   =     -1824.4482 KinEng   =        20.9230 Temp     =        29.8691 
PotEng   =     -1845.3712 E_bond   =        60.0490 E_angle  =        54.3040 
E_dihed  =        14.7744 E_impro  =         1.7847 E_vdwl   =     -1084.8617 
E_coul   =      -891.4216 E_long   =         0.0000 Press    =        -2.4865 
Loop time of 12.8281 on 1 procs for 80000 steps with 236 atoms

Performance: 1616.448 ns/day, 0.015 hours/ns, 6236.298 timesteps/s
97.6% CPU use with 1 MPI tasks x 1 OpenMP threads

MPI task timing breakdown:
Section |  min time  |  avg time  |  max time  |%varavg| %total
---------------------------------------------------------------
Pair    | 10.218     | 10.218     | 10.218     |   0.0 | 79.65
Bond    | 1.1877     | 1.1877     | 1.1877     |   0.0 |  9.26
Neigh   | 0.34382    | 0.34382    | 0.34382    |   0.0 |  2.68
Comm    | 0.015625   | 0.015625   | 0.015625   |   0.0 |  0.12
Output  | 0.71902    | 0.71902    | 0.71902    |   0.0 |  5.60
Modify  | 0.23435    | 0.23435    | 0.23435    |   0.0 |  1.83
Other   |            | 0.1094     |            |       |  0.85

Nlocal:        236.000 ave         236 max         236 min
Histogram: 1 0 0 0 0 0 0 0 0 0
Nghost:         0.00000 ave           0 max           0 min
Histogram: 1 0 0 0 0 0 0 0 0 0
Neighs:        8277.00 ave        8277 max        8277 min
Histogram: 1 0 0 0 0 0 0 0 0 0

Total # of neighbors = 8277
Ave neighs/atom = 35.072034
Ave special neighs/atom = 8.4576271
Neighbor list builds = 748
Dangerous builds = 0

Total wall time: 0:00:12
