LAMMPS (27 May 2021)
OMP_NUM_THREADS environment is not set. Defaulting to 1 thread. (src/comm.cpp:98)
  using 1 OpenMP thread(s) per MPI task
# only protein 1hrc

units		real
boundary	p p p
atom_style	full

pair_style	lj/gromacs/coul/gromacs 9 12 0 12
bond_style      harmonic
special_bonds lj/coul 0.0 1.0 0.0
angle_style     cosine/squared
dihedral_style  charmm
improper_style  harmonic

read_data	protein_lam_data.txt
Reading data file ...
  orthogonal box = (-40.500000 -40.500000 -190.00000) to (40.500000 40.500000 190.00000)
  1 by 1 by 1 MPI processor grid
  reading atoms ...
  236 atoms
  scanning bonds ...
  2 = max bonds/atom
  scanning angles ...
  2 = max angles/atom
  scanning dihedrals ...
  1 = max dihedrals/atom
  scanning impropers ...
  2 = max impropers/atom
  reading bonds ...
  248 bonds
  reading angles ...
  233 angles
  reading dihedrals ...
  28 dihedrals
  reading impropers ...
  13 impropers
Finding 1-2 1-3 1-4 neighbors ...
  special bond factors lj:    0        1        0       
  special bond factors coul:  0        1        0       
     3 = max # of 1-2 neighbors
     6 = max # of 1-3 neighbors
    16 = max # of 1-4 neighbors
    15 = max # of special neighbors
  special bonds CPU = 0.002 seconds
  read_data CPU = 0.010 seconds

neighbor	1.1 bin
neigh_modify	delay 5

timestep	3

thermo_style	multi
thermo		50

##minimize 	1.0e-4 1.0e-6 100 1000
fix		1 all nve temp 298.15 298.15 $(100.0*dt)
fix		1 all nve temp 298.15 298.15 300
fix		2 all langevin 298.15 298.15 14 12345

dump id all custom 50 output.lammpstrj id type xu yu zu		#vmd/pymol
run 80000
Neighbor list info ...
  update every 1 steps, delay 5 steps, check yes
  max neighbors/atom: 2000, page size: 100000
  master list distance cutoff = 13.1
  ghost atom cutoff = 13.1
  binsize = 6.55, bins = 13 13 59
  1 neighbor lists, perpetual/occasional/extra = 1 0 0
  (1) pair lj/gromacs/coul/gromacs, perpetual
      attributes: half, newton on
      pair build: half/bin/newton
      stencil: half/bin/3d
      bin: standard
Per MPI rank memory allocation (min/avg/max) = 9.920 | 9.920 | 9.920 Mbytes
---------------- Step        0 ----- CPU =      0.0000 (sec) ----------------
TotEng   =      1124.1410 KinEng   =         0.0000 Temp     =         0.0000 
PotEng   =      1124.1410 E_bond   =       200.6620 E_angle  =        76.6633 
E_dihed  =        18.4542 E_impro  =        13.0668 E_vdwl   =       951.2346 
E_coul   =      -135.9399 E_long   =         0.0000 Press    =       257.5939 
---------------- Step       50 ----- CPU =      0.0080 (sec) ----------------
TotEng   =      -364.8552 KinEng   =       214.0799 Temp     =       305.6144 
PotEng   =      -578.9351 E_bond   =       137.3708 E_angle  =        65.5392 
E_dihed  =        17.6073 E_impro  =         8.5157 E_vdwl   =      -650.2089 
E_coul   =      -157.7591 E_long   =         0.0000 Press    =        57.9259 
---------------- Step      100 ----- CPU =      0.0160 (sec) ----------------
TotEng   =      -509.2567 KinEng   =       202.3126 Temp     =       288.8157 
PotEng   =      -711.5693 E_bond   =       122.4763 E_angle  =        66.0997 
E_dihed  =        14.3870 E_impro  =         7.3900 E_vdwl   =      -729.2456 
E_coul   =      -192.6767 E_long   =         0.0000 Press    =        42.2992 
---------------- Step      150 ----- CPU =      0.0240 (sec) ----------------
TotEng   =      -569.6264 KinEng   =       221.9720 Temp     =       316.8808 
PotEng   =      -791.5984 E_bond   =       117.1786 E_angle  =        66.6276 
E_dihed  =        12.8693 E_impro  =         7.1329 E_vdwl   =      -780.4798 
E_coul   =      -214.9270 E_long   =         0.0000 Press    =        31.3540 
---------------- Step      200 ----- CPU =      0.0310 (sec) ----------------
TotEng   =      -599.2974 KinEng   =       224.5778 Temp     =       320.6009 
PotEng   =      -823.8752 E_bond   =       113.6312 E_angle  =        63.4952 
E_dihed  =        12.3814 E_impro  =         8.6160 E_vdwl   =      -787.7040 
E_coul   =      -234.2950 E_long   =         0.0000 Press    =        28.4916 
---------------- Step      250 ----- CPU =      0.0390 (sec) ----------------
TotEng   =      -644.3334 KinEng   =       213.5709 Temp     =       304.8877 
PotEng   =      -857.9043 E_bond   =       106.5480 E_angle  =        62.5202 
E_dihed  =        15.5706 E_impro  =         8.3816 E_vdwl   =      -806.7205 
E_coul   =      -244.2041 E_long   =         0.0000 Press    =        24.1021 
---------------- Step      300 ----- CPU =      0.0470 (sec) ----------------
TotEng   =      -654.0720 KinEng   =       207.5361 Temp     =       296.2727 
PotEng   =      -861.6082 E_bond   =       116.0052 E_angle  =        61.8507 
E_dihed  =        13.4044 E_impro  =         8.6855 E_vdwl   =      -814.7262 
E_coul   =      -246.8276 E_long   =         0.0000 Press    =        21.0491 
---------------- Step      350 ----- CPU =      0.0550 (sec) ----------------
TotEng   =      -657.4969 KinEng   =       239.9199 Temp     =       342.5029 
PotEng   =      -897.4169 E_bond   =        95.3821 E_angle  =        64.2880 
E_dihed  =        14.4222 E_impro  =         8.0876 E_vdwl   =      -832.1678 
E_coul   =      -247.4289 E_long   =         0.0000 Press    =        17.2717 
---------------- Step      400 ----- CPU =      0.0620 (sec) ----------------
TotEng   =      -693.6426 KinEng   =       212.4972 Temp     =       303.3550 
PotEng   =      -906.1398 E_bond   =        82.5125 E_angle  =        68.1847 
E_dihed  =        13.6337 E_impro  =         7.2315 E_vdwl   =      -819.1712 
E_coul   =      -258.5310 E_long   =         0.0000 Press    =        19.1378 
---------------- Step      450 ----- CPU =      0.0710 (sec) ----------------
TotEng   =      -707.3459 KinEng   =       209.5881 Temp     =       299.2020 
PotEng   =      -916.9340 E_bond   =        85.0811 E_angle  =        68.2125 
E_dihed  =        16.1862 E_impro  =         8.7350 E_vdwl   =      -828.6440 
E_coul   =      -266.5048 E_long   =         0.0000 Press    =        17.2528 
---------------- Step      500 ----- CPU =      0.0780 (sec) ----------------
TotEng   =      -735.1032 KinEng   =       192.5826 Temp     =       274.9255 
PotEng   =      -927.6858 E_bond   =        88.3206 E_angle  =        67.6056 
E_dihed  =        18.5906 E_impro  =         9.3056 E_vdwl   =      -830.6085 
E_coul   =      -280.8998 E_long   =         0.0000 Press    =        14.8798 
---------------- Step      550 ----- CPU =      0.0867 (sec) ----------------
TotEng   =      -718.6884 KinEng   =       208.8861 Temp     =       298.1998 
PotEng   =      -927.5745 E_bond   =       106.5314 E_angle  =        69.2497 
E_dihed  =        15.1830 E_impro  =         8.4802 E_vdwl   =      -844.1162 
E_coul   =      -282.9026 E_long   =         0.0000 Press    =        12.3994 
---------------- Step      600 ----- CPU =      0.0937 (sec) ----------------
TotEng   =      -773.1782 KinEng   =       188.8565 Temp     =       269.6061 
PotEng   =      -962.0347 E_bond   =        94.7501 E_angle  =        65.3678 
E_dihed  =        14.8752 E_impro  =         8.2806 E_vdwl   =      -846.0239 
E_coul   =      -299.2844 E_long   =         0.0000 Press    =        12.4594 
---------------- Step      650 ----- CPU =      0.1017 (sec) ----------------
TotEng   =      -751.8366 KinEng   =       212.8158 Temp     =       303.8098 
PotEng   =      -964.6525 E_bond   =        98.9100 E_angle  =        59.5697 
E_dihed  =        17.1302 E_impro  =         6.7299 E_vdwl   =      -844.8578 
E_coul   =      -302.1344 E_long   =         0.0000 Press    =        11.4807 
---------------- Step      700 ----- CPU =      0.1097 (sec) ----------------
TotEng   =      -756.7745 KinEng   =       210.2846 Temp     =       300.1963 
PotEng   =      -967.0591 E_bond   =        96.8564 E_angle  =        62.4231 
E_dihed  =        13.8110 E_impro  =         8.0618 E_vdwl   =      -835.9957 
E_coul   =      -312.2158 E_long   =         0.0000 Press    =        11.6710 
---------------- Step      750 ----- CPU =      0.1177 (sec) ----------------
TotEng   =      -761.1882 KinEng   =       218.1959 Temp     =       311.4903 
PotEng   =      -979.3841 E_bond   =       100.6195 E_angle  =        61.3550 
E_dihed  =        15.9744 E_impro  =         8.2931 E_vdwl   =      -847.5441 
E_coul   =      -318.0820 E_long   =         0.0000 Press    =         8.4489 
---------------- Step      800 ----- CPU =      0.1257 (sec) ----------------
TotEng   =      -770.1974 KinEng   =       225.5072 Temp     =       321.9276 
PotEng   =      -995.7046 E_bond   =        84.8216 E_angle  =        59.9892 
E_dihed  =        17.6095 E_impro  =         8.8888 E_vdwl   =      -842.4597 
E_coul   =      -324.5540 E_long   =         0.0000 Press    =         8.8984 
---------------- Step      850 ----- CPU =      0.1337 (sec) ----------------
TotEng   =      -781.5736 KinEng   =       212.0739 Temp     =       302.7506 
PotEng   =      -993.6475 E_bond   =        85.4766 E_angle  =        59.0192 
E_dihed  =        17.6853 E_impro  =         8.0811 E_vdwl   =      -835.2912 
E_coul   =      -328.6186 E_long   =         0.0000 Press    =        11.2374 
---------------- Step      900 ----- CPU =      0.1416 (sec) ----------------
TotEng   =      -815.4007 KinEng   =       202.1694 Temp     =       288.6112 
PotEng   =     -1017.5701 E_bond   =        90.2579 E_angle  =        57.6407 
E_dihed  =        17.4079 E_impro  =         8.5565 E_vdwl   =      -861.0871 
E_coul   =      -330.3461 E_long   =         0.0000 Press    =         5.8554 
---------------- Step      950 ----- CPU =      0.1497 (sec) ----------------
TotEng   =      -805.9269 KinEng   =       213.4366 Temp     =       304.6960 
PotEng   =     -1019.3635 E_bond   =        85.3166 E_angle  =        64.0820 
E_dihed  =        11.3268 E_impro  =         7.6346 E_vdwl   =      -852.5156 
E_coul   =      -335.2080 E_long   =         0.0000 Press    =         7.4706 
---------------- Step     1000 ----- CPU =      0.1567 (sec) ----------------
TotEng   =      -811.0015 KinEng   =       202.1379 Temp     =       288.5663 
PotEng   =     -1013.1394 E_bond   =        80.7498 E_angle  =        64.9043 
E_dihed  =        16.0309 E_impro  =         8.5040 E_vdwl   =      -855.2623 
E_coul   =      -328.0660 E_long   =         0.0000 Press    =         6.6725 
---------------- Step     1050 ----- CPU =      0.1647 (sec) ----------------
TotEng   =      -821.4666 KinEng   =       203.4544 Temp     =       290.4457 
PotEng   =     -1024.9210 E_bond   =        77.2910 E_angle  =        61.0712 
E_dihed  =        20.6856 E_impro  =         7.6898 E_vdwl   =      -860.8775 
E_coul   =      -330.7811 E_long   =         0.0000 Press    =         6.3597 
---------------- Step     1100 ----- CPU =      0.1727 (sec) ----------------
TotEng   =      -798.6803 KinEng   =       219.8549 Temp     =       313.8586 
PotEng   =     -1018.5352 E_bond   =        82.8613 E_angle  =        61.5493 
E_dihed  =        19.9615 E_impro  =         6.6986 E_vdwl   =      -845.6144 
E_coul   =      -343.9916 E_long   =         0.0000 Press    =         7.5197 
---------------- Step     1150 ----- CPU =      0.1796 (sec) ----------------
TotEng   =      -811.4830 KinEng   =       211.7307 Temp     =       302.2606 
PotEng   =     -1023.2137 E_bond   =        88.3161 E_angle  =        60.8912 
E_dihed  =        18.9112 E_impro  =         6.7927 E_vdwl   =      -850.1455 
E_coul   =      -347.9793 E_long   =         0.0000 Press    =         8.6928 
---------------- Step     1200 ----- CPU =      0.1877 (sec) ----------------
TotEng   =      -833.2132 KinEng   =       197.9333 Temp     =       282.5639 
PotEng   =     -1031.1465 E_bond   =        94.1924 E_angle  =        62.0479 
E_dihed  =        17.8469 E_impro  =         6.9359 E_vdwl   =      -856.5556 
E_coul   =      -355.6140 E_long   =         0.0000 Press    =         6.1729 
---------------- Step     1250 ----- CPU =      0.1957 (sec) ----------------
TotEng   =      -837.0828 KinEng   =       203.1820 Temp     =       290.0569 
PotEng   =     -1040.2648 E_bond   =        90.3329 E_angle  =        61.1858 
E_dihed  =        16.5180 E_impro  =         6.6346 E_vdwl   =      -857.4697 
E_coul   =      -357.4665 E_long   =         0.0000 Press    =         5.2726 
---------------- Step     1300 ----- CPU =      0.2037 (sec) ----------------
TotEng   =      -828.6062 KinEng   =       210.0972 Temp     =       299.9288 
PotEng   =     -1038.7034 E_bond   =        77.3842 E_angle  =        62.7690 
E_dihed  =        19.0955 E_impro  =         6.7617 E_vdwl   =      -848.1933 
E_coul   =      -356.5205 E_long   =         0.0000 Press    =         4.9494 
---------------- Step     1350 ----- CPU =      0.2107 (sec) ----------------
TotEng   =      -812.8925 KinEng   =       224.6154 Temp     =       320.6545 
PotEng   =     -1037.5078 E_bond   =        90.8283 E_angle  =        63.3307 
E_dihed  =        18.1900 E_impro  =         8.6798 E_vdwl   =      -848.6041 
E_coul   =      -369.9326 E_long   =         0.0000 Press    =         5.0495 
---------------- Step     1400 ----- CPU =      0.2197 (sec) ----------------
TotEng   =      -835.6570 KinEng   =       196.2714 Temp     =       280.1914 
PotEng   =     -1031.9284 E_bond   =        94.6248 E_angle  =        66.6300 
E_dihed  =        17.2746 E_impro  =         9.0319 E_vdwl   =      -846.2875 
E_coul   =      -373.2023 E_long   =         0.0000 Press    =         2.2153 
---------------- Step     1450 ----- CPU =      0.2276 (sec) ----------------
TotEng   =      -839.2830 KinEng   =       204.0279 Temp     =       291.2644 
PotEng   =     -1043.3108 E_bond   =        90.5530 E_angle  =        68.7166 
E_dihed  =        20.4260 E_impro  =         7.5104 E_vdwl   =      -855.4908 
E_coul   =      -375.0260 E_long   =         0.0000 Press    =         2.1994 
---------------- Step     1500 ----- CPU =      0.2357 (sec) ----------------
TotEng   =      -846.6138 KinEng   =       196.7963 Temp     =       280.9407 
PotEng   =     -1043.4101 E_bond   =        88.8344 E_angle  =        67.6294 
E_dihed  =        17.2058 E_impro  =         7.5788 E_vdwl   =      -849.9672 
E_coul   =      -374.6913 E_long   =         0.0000 Press    =         2.0884 
---------------- Step     1550 ----- CPU =      0.2427 (sec) ----------------
TotEng   =      -830.0459 KinEng   =       218.1871 Temp     =       311.4777 
PotEng   =     -1048.2331 E_bond   =        89.3508 E_angle  =        67.9713 
E_dihed  =        18.1200 E_impro  =         7.5947 E_vdwl   =      -849.8505 
E_coul   =      -381.4193 E_long   =         0.0000 Press    =         2.3805 
---------------- Step     1600 ----- CPU =      0.2507 (sec) ----------------
TotEng   =      -832.9399 KinEng   =       222.3584 Temp     =       317.4324 
PotEng   =     -1055.2983 E_bond   =        89.4960 E_angle  =        64.2740 
E_dihed  =        16.9995 E_impro  =         5.9972 E_vdwl   =      -856.4334 
E_coul   =      -375.6316 E_long   =         0.0000 Press    =        -0.0535 
---------------- Step     1650 ----- CPU =      0.2577 (sec) ----------------
TotEng   =      -828.9518 KinEng   =       223.3926 Temp     =       318.9088 
PotEng   =     -1052.3443 E_bond   =        90.1514 E_angle  =        66.0839 
E_dihed  =        14.2101 E_impro  =         5.7919 E_vdwl   =      -836.6000 
E_coul   =      -391.9816 E_long   =         0.0000 Press    =         2.7183 
---------------- Step     1700 ----- CPU =      0.2667 (sec) ----------------
TotEng   =      -827.5322 KinEng   =       221.7800 Temp     =       316.6067 
PotEng   =     -1049.3121 E_bond   =        89.1178 E_angle  =        63.6745 
E_dihed  =        18.7315 E_impro  =         6.2864 E_vdwl   =      -835.4790 
E_coul   =      -391.6434 E_long   =         0.0000 Press    =         3.1555 
---------------- Step     1750 ----- CPU =      0.2747 (sec) ----------------
TotEng   =      -838.0427 KinEng   =       213.8639 Temp     =       305.3059 
PotEng   =     -1051.9065 E_bond   =        93.2000 E_angle  =        65.6837 
E_dihed  =        17.0015 E_impro  =         6.1753 E_vdwl   =      -834.3502 
E_coul   =      -399.6167 E_long   =         0.0000 Press    =         2.3957 
---------------- Step     1800 ----- CPU =      0.2837 (sec) ----------------
TotEng   =      -848.1584 KinEng   =       215.5345 Temp     =       307.6908 
PotEng   =     -1063.6928 E_bond   =        85.6847 E_angle  =        64.8378 
E_dihed  =        15.6555 E_impro  =         4.4731 E_vdwl   =      -833.4267 
E_coul   =      -400.9172 E_long   =         0.0000 Press    =         1.2211 
---------------- Step     1850 ----- CPU =      0.2907 (sec) ----------------
TotEng   =      -878.9758 KinEng   =       192.8376 Temp     =       275.2894 
PotEng   =     -1071.8134 E_bond   =        85.9366 E_angle  =        68.9658 
E_dihed  =        13.3741 E_impro  =         5.3567 E_vdwl   =      -841.6228 
E_coul   =      -403.8237 E_long   =         0.0000 Press    =        -0.5176 
---------------- Step     1900 ----- CPU =      0.2987 (sec) ----------------
TotEng   =      -867.5971 KinEng   =       213.1213 Temp     =       304.2458 
PotEng   =     -1080.7184 E_bond   =        79.9805 E_angle  =        66.1700 
E_dihed  =        15.3102 E_impro  =         6.4276 E_vdwl   =      -840.6989 
E_coul   =      -407.9077 E_long   =         0.0000 Press    =         0.7289 
---------------- Step     1950 ----- CPU =      0.3067 (sec) ----------------
TotEng   =      -875.3147 KinEng   =       219.8928 Temp     =       313.9127 
PotEng   =     -1095.2075 E_bond   =        74.7656 E_angle  =        66.4632 
E_dihed  =        18.4231 E_impro  =         6.3837 E_vdwl   =      -850.0180 
E_coul   =      -411.2251 E_long   =         0.0000 Press    =         0.6109 
---------------- Step     2000 ----- CPU =      0.3151 (sec) ----------------
TotEng   =      -885.8865 KinEng   =       202.5135 Temp     =       289.1024 
PotEng   =     -1088.4000 E_bond   =        76.0259 E_angle  =        65.7272 
E_dihed  =        18.3151 E_impro  =         5.0856 E_vdwl   =      -854.3895 
E_coul   =      -399.1643 E_long   =         0.0000 Press    =        -1.1525 
---------------- Step     2050 ----- CPU =      0.3221 (sec) ----------------
TotEng   =      -858.6482 KinEng   =       230.4104 Temp     =       328.9273 
PotEng   =     -1089.0586 E_bond   =        81.4322 E_angle  =        66.7704 
E_dihed  =        16.0986 E_impro  =         6.6373 E_vdwl   =      -851.8651 
E_coul   =      -408.1319 E_long   =         0.0000 Press    =        -1.0796 
---------------- Step     2100 ----- CPU =      0.3311 (sec) ----------------
TotEng   =      -882.5870 KinEng   =       209.5714 Temp     =       299.1781 
PotEng   =     -1092.1584 E_bond   =        80.4949 E_angle  =        70.8544 
E_dihed  =        15.6835 E_impro  =         4.3298 E_vdwl   =      -860.2445 
E_coul   =      -403.2765 E_long   =         0.0000 Press    =        -2.1781 
---------------- Step     2150 ----- CPU =      0.3391 (sec) ----------------
TotEng   =      -890.1452 KinEng   =       204.2122 Temp     =       291.5275 
PotEng   =     -1094.3574 E_bond   =        65.8021 E_angle  =        67.5639 
E_dihed  =        18.1964 E_impro  =         3.7893 E_vdwl   =      -845.4738 
E_coul   =      -404.2353 E_long   =         0.0000 Press    =         0.1978 
---------------- Step     2200 ----- CPU =      0.3461 (sec) ----------------
TotEng   =      -902.6222 KinEng   =       206.7491 Temp     =       295.1491 
PotEng   =     -1109.3713 E_bond   =        73.6061 E_angle  =        70.8442 
E_dihed  =        13.7216 E_impro  =         3.6218 E_vdwl   =      -867.9100 
E_coul   =      -403.2549 E_long   =         0.0000 Press    =        -1.1220 
---------------- Step     2250 ----- CPU =      0.3541 (sec) ----------------
TotEng   =      -902.1071 KinEng   =       211.0196 Temp     =       301.2455 
PotEng   =     -1113.1267 E_bond   =        83.5399 E_angle  =        64.7654 
E_dihed  =        16.8449 E_impro  =         3.5034 E_vdwl   =      -861.4645 
E_coul   =      -420.3157 E_long   =         0.0000 Press    =        -2.7307 
---------------- Step     2300 ----- CPU =      0.3621 (sec) ----------------
TotEng   =      -899.8364 KinEng   =       223.1994 Temp     =       318.6331 
PotEng   =     -1123.0358 E_bond   =        85.8034 E_angle  =        62.4533 
E_dihed  =        15.8408 E_impro  =         2.6909 E_vdwl   =      -872.0461 
E_coul   =      -417.7781 E_long   =         0.0000 Press    =        -3.4261 
---------------- Step     2350 ----- CPU =      0.3701 (sec) ----------------
TotEng   =      -900.8210 KinEng   =       203.8057 Temp     =       290.9472 
PotEng   =     -1104.6267 E_bond   =        86.9189 E_angle  =        62.7560 
E_dihed  =        18.8003 E_impro  =         2.9979 E_vdwl   =      -851.3707 
E_coul   =      -424.7291 E_long   =         0.0000 Press    =        -1.2170 
---------------- Step     2400 ----- CPU =      0.3781 (sec) ----------------
TotEng   =      -889.1932 KinEng   =       209.5461 Temp     =       299.1420 
PotEng   =     -1098.7393 E_bond   =        92.1855 E_angle  =        63.8422 
E_dihed  =        16.4552 E_impro  =         4.4002 E_vdwl   =      -850.9327 
E_coul   =      -424.6897 E_long   =         0.0000 Press    =         0.9820 
---------------- Step     2450 ----- CPU =      0.3871 (sec) ----------------
TotEng   =      -911.8819 KinEng   =       194.6068 Temp     =       277.8151 
PotEng   =     -1106.4887 E_bond   =        86.4999 E_angle  =        63.8645 
E_dihed  =        16.0290 E_impro  =         4.2723 E_vdwl   =      -842.8227 
E_coul   =      -434.3317 E_long   =         0.0000 Press    =         1.2089 
---------------- Step     2500 ----- CPU =      0.3941 (sec) ----------------
TotEng   =      -908.0942 KinEng   =       211.5884 Temp     =       302.0576 
PotEng   =     -1119.6826 E_bond   =        78.2538 E_angle  =        59.4613 
E_dihed  =        21.1524 E_impro  =         4.8072 E_vdwl   =      -857.9279 
E_coul   =      -425.4294 E_long   =         0.0000 Press    =         0.7880 
---------------- Step     2550 ----- CPU =      0.4021 (sec) ----------------
TotEng   =      -916.6708 KinEng   =       207.2782 Temp     =       295.9044 
PotEng   =     -1123.9490 E_bond   =        72.6958 E_angle  =        61.7803 
E_dihed  =        19.1189 E_impro  =         5.0440 E_vdwl   =      -854.7624 
E_coul   =      -427.8256 E_long   =         0.0000 Press    =         1.8350 
---------------- Step     2600 ----- CPU =      0.4101 (sec) ----------------
TotEng   =      -904.5042 KinEng   =       210.8000 Temp     =       300.9321 
PotEng   =     -1115.3043 E_bond   =        89.7123 E_angle  =        59.4094 
E_dihed  =        20.0027 E_impro  =         5.0728 E_vdwl   =      -850.8211 
E_coul   =      -438.6803 E_long   =         0.0000 Press    =         0.1043 
---------------- Step     2650 ----- CPU =      0.4181 (sec) ----------------
TotEng   =      -924.7046 KinEng   =       199.4150 Temp     =       284.6792 
PotEng   =     -1124.1197 E_bond   =        82.6237 E_angle  =        63.3949 
E_dihed  =        21.3603 E_impro  =         6.9819 E_vdwl   =      -868.1276 
E_coul   =      -430.3529 E_long   =         0.0000 Press    =        -3.2544 
---------------- Step     2700 ----- CPU =      0.4261 (sec) ----------------
TotEng   =      -922.0580 KinEng   =       214.2827 Temp     =       305.9038 
PotEng   =     -1136.3406 E_bond   =        73.2431 E_angle  =        65.4184 
E_dihed  =        18.3881 E_impro  =         5.8569 E_vdwl   =      -866.3670 
E_coul   =      -432.8800 E_long   =         0.0000 Press    =        -3.4774 
---------------- Step     2750 ----- CPU =      0.4341 (sec) ----------------
TotEng   =      -915.5180 KinEng   =       215.1767 Temp     =       307.1801 
PotEng   =     -1130.6947 E_bond   =        78.1646 E_angle  =        64.4889 
E_dihed  =        16.7008 E_impro  =         5.0216 E_vdwl   =      -852.7814 
E_coul   =      -442.2892 E_long   =         0.0000 Press    =        -1.2667 
---------------- Step     2800 ----- CPU =      0.4421 (sec) ----------------
TotEng   =      -919.4530 KinEng   =       217.5138 Temp     =       310.5164 
PotEng   =     -1136.9667 E_bond   =        78.9037 E_angle  =        61.0779 
E_dihed  =        19.0319 E_impro  =         5.7621 E_vdwl   =      -846.3473 
E_coul   =      -455.3950 E_long   =         0.0000 Press    =        -0.1967 
---------------- Step     2850 ----- CPU =      0.4491 (sec) ----------------
TotEng   =      -927.4042 KinEng   =       217.6528 Temp     =       310.7149 
PotEng   =     -1145.0570 E_bond   =        84.1584 E_angle  =        61.2917 
E_dihed  =        12.8848 E_impro  =         4.5844 E_vdwl   =      -856.8468 
E_coul   =      -451.1296 E_long   =         0.0000 Press    =        -1.5671 
---------------- Step     2900 ----- CPU =      0.4571 (sec) ----------------
TotEng   =      -968.3265 KinEng   =       187.9860 Temp     =       268.3634 
PotEng   =     -1156.3125 E_bond   =        81.3726 E_angle  =        64.3691 
E_dihed  =        13.7020 E_impro  =         4.3470 E_vdwl   =      -873.1856 
E_coul   =      -446.9177 E_long   =         0.0000 Press    =        -5.2379 
---------------- Step     2950 ----- CPU =      0.4651 (sec) ----------------
TotEng   =      -944.1418 KinEng   =       209.3630 Temp     =       298.8807 
PotEng   =     -1153.5048 E_bond   =        84.4978 E_angle  =        61.8842 
E_dihed  =        13.8990 E_impro  =         4.0370 E_vdwl   =      -865.8498 
E_coul   =      -451.9729 E_long   =         0.0000 Press    =        -3.8441 
---------------- Step     3000 ----- CPU =      0.4731 (sec) ----------------
TotEng   =      -970.7068 KinEng   =       195.6033 Temp     =       279.2376 
PotEng   =     -1166.3101 E_bond   =        81.4239 E_angle  =        56.4108 
E_dihed  =        11.5023 E_impro  =         4.4743 E_vdwl   =      -857.5310 
E_coul   =      -462.5904 E_long   =         0.0000 Press    =        -2.8152 
---------------- Step     3050 ----- CPU =      0.4801 (sec) ----------------
TotEng   =      -973.3306 KinEng   =       197.8678 Temp     =       282.4703 
PotEng   =     -1171.1983 E_bond   =        83.1618 E_angle  =        61.6682 
E_dihed  =        11.3005 E_impro  =         3.6795 E_vdwl   =      -869.3849 
E_coul   =      -461.6233 E_long   =         0.0000 Press    =        -5.8016 
---------------- Step     3100 ----- CPU =      0.4881 (sec) ----------------
TotEng   =      -967.9901 KinEng   =       192.1371 Temp     =       274.2894 
PotEng   =     -1160.1272 E_bond   =        84.3382 E_angle  =        60.5570 
E_dihed  =        11.3858 E_impro  =         3.8330 E_vdwl   =      -845.3242 
E_coul   =      -474.9171 E_long   =         0.0000 Press    =        -3.8108 
---------------- Step     3150 ----- CPU =      0.4956 (sec) ----------------
TotEng   =      -947.8394 KinEng   =       215.3700 Temp     =       307.4561 
PotEng   =     -1163.2094 E_bond   =        83.8925 E_angle  =        64.3080 
E_dihed  =        14.3820 E_impro  =         4.1119 E_vdwl   =      -850.2739 
E_coul   =      -479.6299 E_long   =         0.0000 Press    =        -5.7086 
---------------- Step     3200 ----- CPU =      0.5037 (sec) ----------------
TotEng   =      -964.0646 KinEng   =       220.6989 Temp     =       315.0634 
PotEng   =     -1184.7634 E_bond   =        78.6430 E_angle  =        61.9304 
E_dihed  =        11.6041 E_impro  =         4.3278 E_vdwl   =      -845.6942 
E_coul   =      -495.5746 E_long   =         0.0000 Press    =        -4.7651 
---------------- Step     3250 ----- CPU =      0.5107 (sec) ----------------
TotEng   =      -970.4242 KinEng   =       202.8936 Temp     =       289.6451 
PotEng   =     -1173.3178 E_bond   =        81.8941 E_angle  =        63.7141 
E_dihed  =        13.0878 E_impro  =         5.0955 E_vdwl   =      -846.8493 
E_coul   =      -490.2600 E_long   =         0.0000 Press    =        -4.8952 
---------------- Step     3300 ----- CPU =      0.5184 (sec) ----------------
TotEng   =      -944.7131 KinEng   =       229.1932 Temp     =       327.1897 
PotEng   =     -1173.9063 E_bond   =        82.1336 E_angle  =        61.1703 
E_dihed  =        16.7583 E_impro  =         3.8616 E_vdwl   =      -839.3710 
E_coul   =      -498.4591 E_long   =         0.0000 Press    =        -3.1570 
---------------- Step     3350 ----- CPU =      0.5264 (sec) ----------------
TotEng   =      -972.7723 KinEng   =       207.5767 Temp     =       296.3306 
PotEng   =     -1180.3490 E_bond   =        85.2924 E_angle  =        65.7379 
E_dihed  =        14.6524 E_impro  =         3.5289 E_vdwl   =      -844.5291 
E_coul   =      -505.0315 E_long   =         0.0000 Press    =        -3.9045 
---------------- Step     3400 ----- CPU =      0.5334 (sec) ----------------
TotEng   =      -971.4061 KinEng   =       220.5444 Temp     =       314.8429 
PotEng   =     -1191.9505 E_bond   =        77.1897 E_angle  =        61.3112 
E_dihed  =        16.9091 E_impro  =         3.7215 E_vdwl   =      -845.6015 
E_coul   =      -505.4805 E_long   =         0.0000 Press    =        -0.9555 
---------------- Step     3450 ----- CPU =      0.5414 (sec) ----------------
TotEng   =      -978.8235 KinEng   =       208.4413 Temp     =       297.5649 
PotEng   =     -1187.2649 E_bond   =        87.2373 E_angle  =        63.3790 
E_dihed  =        17.4466 E_impro  =         2.8671 E_vdwl   =      -848.0205 
E_coul   =      -510.1744 E_long   =         0.0000 Press    =        -4.1133 
---------------- Step     3500 ----- CPU =      0.5484 (sec) ----------------
TotEng   =      -967.8937 KinEng   =       215.9789 Temp     =       308.3253 
PotEng   =     -1183.8726 E_bond   =        90.7124 E_angle  =        60.5118 
E_dihed  =        17.9440 E_impro  =         3.5896 E_vdwl   =      -842.6517 
E_coul   =      -513.9787 E_long   =         0.0000 Press    =        -3.2746 
---------------- Step     3550 ----- CPU =      0.5564 (sec) ----------------
TotEng   =      -988.4067 KinEng   =       209.5990 Temp     =       299.2175 
PotEng   =     -1198.0057 E_bond   =        87.0297 E_angle  =        60.7995 
E_dihed  =        11.9002 E_impro  =         3.4154 E_vdwl   =      -849.7740 
E_coul   =      -511.3765 E_long   =         0.0000 Press    =        -3.0453 
---------------- Step     3600 ----- CPU =      0.5634 (sec) ----------------
TotEng   =     -1004.4474 KinEng   =       198.7811 Temp     =       283.7742 
PotEng   =     -1203.2285 E_bond   =        82.8282 E_angle  =        61.0727 
E_dihed  =        12.5119 E_impro  =         2.6563 E_vdwl   =      -852.0282 
E_coul   =      -510.2694 E_long   =         0.0000 Press    =        -2.7649 
---------------- Step     3650 ----- CPU =      0.5714 (sec) ----------------
TotEng   =      -989.1521 KinEng   =       203.2967 Temp     =       290.2205 
PotEng   =     -1192.4487 E_bond   =        83.0082 E_angle  =        61.0180 
E_dihed  =        15.7155 E_impro  =         2.7795 E_vdwl   =      -840.5475 
E_coul   =      -514.4224 E_long   =         0.0000 Press    =        -2.8862 
---------------- Step     3700 ----- CPU =      0.5783 (sec) ----------------
TotEng   =      -997.9967 KinEng   =       200.2327 Temp     =       285.8465 
PotEng   =     -1198.2295 E_bond   =        89.0176 E_angle  =        58.1311 
E_dihed  =        15.7855 E_impro  =         2.2209 E_vdwl   =      -840.1540 
E_coul   =      -523.2306 E_long   =         0.0000 Press    =        -3.4674 
---------------- Step     3750 ----- CPU =      0.5864 (sec) ----------------
TotEng   =      -996.0363 KinEng   =       212.1007 Temp     =       302.7889 
PotEng   =     -1208.1370 E_bond   =        88.2512 E_angle  =        63.5456 
E_dihed  =        12.5098 E_impro  =         1.9315 E_vdwl   =      -845.8241 
E_coul   =      -528.5510 E_long   =         0.0000 Press    =        -3.0677 
---------------- Step     3800 ----- CPU =      0.5934 (sec) ----------------
TotEng   =     -1007.3136 KinEng   =       226.8772 Temp     =       323.8833 
PotEng   =     -1234.1907 E_bond   =        78.0618 E_angle  =        60.3341 
E_dihed  =        11.7517 E_impro  =         2.2145 E_vdwl   =      -849.4424 
E_coul   =      -537.1105 E_long   =         0.0000 Press    =        -0.3882 
---------------- Step     3850 ----- CPU =      0.6014 (sec) ----------------
TotEng   =      -996.5275 KinEng   =       225.8354 Temp     =       322.3962 
PotEng   =     -1222.3629 E_bond   =        85.2552 E_angle  =        58.5565 
E_dihed  =        16.1138 E_impro  =         1.8463 E_vdwl   =      -855.8607 
E_coul   =      -528.2740 E_long   =         0.0000 Press    =        -1.8950 
---------------- Step     3900 ----- CPU =      0.6090 (sec) ----------------
TotEng   =     -1031.6588 KinEng   =       206.0548 Temp     =       294.1579 
PotEng   =     -1237.7136 E_bond   =        85.0968 E_angle  =        55.3813 
E_dihed  =        15.3138 E_impro  =         1.7247 E_vdwl   =      -855.3766 
E_coul   =      -539.8536 E_long   =         0.0000 Press    =        -2.1353 
---------------- Step     3950 ----- CPU =      0.6170 (sec) ----------------
TotEng   =      -992.9287 KinEng   =       235.4409 Temp     =       336.1088 
PotEng   =     -1228.3696 E_bond   =        77.8880 E_angle  =        57.1224 
E_dihed  =        19.0209 E_impro  =         3.2070 E_vdwl   =      -842.9089 
E_coul   =      -542.6990 E_long   =         0.0000 Press    =         0.1067 
---------------- Step     4000 ----- CPU =      0.6249 (sec) ----------------
TotEng   =      -989.0680 KinEng   =       230.1698 Temp     =       328.5838 
PotEng   =     -1219.2377 E_bond   =        88.5668 E_angle  =        58.0537 
E_dihed  =        15.9314 E_impro  =         2.8510 E_vdwl   =      -843.5576 
E_coul   =      -541.0831 E_long   =         0.0000 Press    =         1.0559 
---------------- Step     4050 ----- CPU =      0.6330 (sec) ----------------
TotEng   =     -1020.3963 KinEng   =       212.1060 Temp     =       302.7964 
PotEng   =     -1232.5023 E_bond   =        84.8511 E_angle  =        59.2375 
E_dihed  =        17.2779 E_impro  =         3.1304 E_vdwl   =      -845.7342 
E_coul   =      -551.2649 E_long   =         0.0000 Press    =        -0.9848 
---------------- Step     4100 ----- CPU =      0.6400 (sec) ----------------
TotEng   =     -1027.5377 KinEng   =       219.7858 Temp     =       313.7599 
PotEng   =     -1247.3235 E_bond   =        88.0281 E_angle  =        60.9053 
E_dihed  =        16.5806 E_impro  =         3.3019 E_vdwl   =      -854.8530 
E_coul   =      -561.2864 E_long   =         0.0000 Press    =        -2.8432 
---------------- Step     4150 ----- CPU =      0.6479 (sec) ----------------
TotEng   =     -1031.2462 KinEng   =       209.9685 Temp     =       299.7450 
PotEng   =     -1241.2147 E_bond   =        88.0823 E_angle  =        67.4501 
E_dihed  =        19.8477 E_impro  =         2.6606 E_vdwl   =      -847.0755 
E_coul   =      -572.1799 E_long   =         0.0000 Press    =        -1.5260 
---------------- Step     4200 ----- CPU =      0.6560 (sec) ----------------
TotEng   =     -1040.9284 KinEng   =       209.4765 Temp     =       299.0426 
PotEng   =     -1250.4048 E_bond   =        86.6056 E_angle  =        69.4656 
E_dihed  =        15.8494 E_impro  =         1.5881 E_vdwl   =      -855.5171 
E_coul   =      -568.3964 E_long   =         0.0000 Press    =        -3.7504 
---------------- Step     4250 ----- CPU =      0.6639 (sec) ----------------
TotEng   =     -1044.2848 KinEng   =       211.2055 Temp     =       301.5110 
PotEng   =     -1255.4903 E_bond   =        88.4595 E_angle  =        61.4725 
E_dihed  =        15.1257 E_impro  =         2.1021 E_vdwl   =      -850.9980 
E_coul   =      -571.6522 E_long   =         0.0000 Press    =        -2.9591 
---------------- Step     4300 ----- CPU =      0.6709 (sec) ----------------
TotEng   =     -1023.3503 KinEng   =       226.0028 Temp     =       322.6351 
PotEng   =     -1249.3530 E_bond   =        85.0861 E_angle  =        62.4928 
E_dihed  =        16.4717 E_impro  =         1.3576 E_vdwl   =      -840.9673 
E_coul   =      -573.7940 E_long   =         0.0000 Press    =        -0.5389 
---------------- Step     4350 ----- CPU =      0.6790 (sec) ----------------
TotEng   =     -1062.1966 KinEng   =       196.2270 Temp     =       280.1281 
PotEng   =     -1258.4236 E_bond   =        92.7159 E_angle  =        64.8168 
E_dihed  =        17.0089 E_impro  =         1.7316 E_vdwl   =      -851.7491 
E_coul   =      -582.9477 E_long   =         0.0000 Press    =        -2.9881 
---------------- Step     4400 ----- CPU =      0.6859 (sec) ----------------
TotEng   =     -1048.4054 KinEng   =       217.0453 Temp     =       309.8476 
PotEng   =     -1265.4507 E_bond   =        92.7387 E_angle  =        64.1738 
E_dihed  =        17.7116 E_impro  =         1.8740 E_vdwl   =      -857.6247 
E_coul   =      -584.3240 E_long   =         0.0000 Press    =        -3.1390 
---------------- Step     4450 ----- CPU =      0.6940 (sec) ----------------
TotEng   =     -1057.0766 KinEng   =       206.4665 Temp     =       294.7457 
PotEng   =     -1263.5432 E_bond   =        86.3978 E_angle  =        67.8236 
E_dihed  =        14.8004 E_impro  =         1.9984 E_vdwl   =      -848.7913 
E_coul   =      -585.7720 E_long   =         0.0000 Press    =        -2.1183 
---------------- Step     4500 ----- CPU =      0.7019 (sec) ----------------
TotEng   =     -1061.8743 KinEng   =       216.4760 Temp     =       309.0350 
PotEng   =     -1278.3504 E_bond   =        79.7671 E_angle  =        66.0602 
E_dihed  =        17.0392 E_impro  =         1.8822 E_vdwl   =      -862.0194 
E_coul   =      -581.0798 E_long   =         0.0000 Press    =        -3.0737 
---------------- Step     4550 ----- CPU =      0.7089 (sec) ----------------
TotEng   =     -1049.2797 KinEng   =       223.4165 Temp     =       318.9430 
PotEng   =     -1272.6962 E_bond   =        88.9528 E_angle  =        64.5296 
E_dihed  =        13.7878 E_impro  =         1.9602 E_vdwl   =      -857.7248 
E_coul   =      -584.2018 E_long   =         0.0000 Press    =        -3.4431 
---------------- Step     4600 ----- CPU =      0.7169 (sec) ----------------
TotEng   =     -1071.4206 KinEng   =       199.7823 Temp     =       285.2035 
PotEng   =     -1271.2029 E_bond   =        92.5636 E_angle  =        64.2061 
E_dihed  =        11.5544 E_impro  =         2.2130 E_vdwl   =      -855.3614 
E_coul   =      -586.3785 E_long   =         0.0000 Press    =        -2.0464 
---------------- Step     4650 ----- CPU =      0.7240 (sec) ----------------
TotEng   =     -1057.0555 KinEng   =       221.9785 Temp     =       316.8902 
PotEng   =     -1279.0340 E_bond   =        82.0153 E_angle  =        66.5425 
E_dihed  =        14.3972 E_impro  =         2.4113 E_vdwl   =      -865.5973 
E_coul   =      -578.8031 E_long   =         0.0000 Press    =        -1.8288 
---------------- Step     4700 ----- CPU =      0.7319 (sec) ----------------
TotEng   =     -1084.6980 KinEng   =       193.8912 Temp     =       276.7936 
PotEng   =     -1278.5892 E_bond   =        88.4315 E_angle  =        64.5023 
E_dihed  =        20.0849 E_impro  =         2.1049 E_vdwl   =      -859.1399 
E_coul   =      -594.5729 E_long   =         0.0000 Press    =        -1.5293 
---------------- Step     4750 ----- CPU =      0.7400 (sec) ----------------
TotEng   =     -1086.2404 KinEng   =       196.2013 Temp     =       280.0913 
PotEng   =     -1282.4417 E_bond   =        81.2921 E_angle  =        64.7972 
E_dihed  =        16.1937 E_impro  =         1.9559 E_vdwl   =      -854.3462 
E_coul   =      -592.3345 E_long   =         0.0000 Press    =        -0.2790 
---------------- Step     4800 ----- CPU =      0.7479 (sec) ----------------
TotEng   =     -1055.1025 KinEng   =       221.4177 Temp     =       316.0895 
PotEng   =     -1276.5201 E_bond   =        93.6825 E_angle  =        67.8607 
E_dihed  =        15.5261 E_impro  =         1.5442 E_vdwl   =      -861.6073 
E_coul   =      -593.5263 E_long   =         0.0000 Press    =        -2.5632 
---------------- Step     4850 ----- CPU =      0.7560 (sec) ----------------
TotEng   =     -1085.2907 KinEng   =       203.3428 Temp     =       290.2864 
PotEng   =     -1288.6335 E_bond   =        85.2241 E_angle  =        63.6861 
E_dihed  =        15.0580 E_impro  =         1.7935 E_vdwl   =      -861.6219 
E_coul   =      -592.7734 E_long   =         0.0000 Press    =        -3.9812 
---------------- Step     4900 ----- CPU =      0.7630 (sec) ----------------
TotEng   =     -1067.8429 KinEng   =       223.7911 Temp     =       319.4778 
PotEng   =     -1291.6340 E_bond   =        88.4803 E_angle  =        66.1014 
E_dihed  =        17.8200 E_impro  =         4.1982 E_vdwl   =      -865.2094 
E_coul   =      -603.0244 E_long   =         0.0000 Press    =        -3.3375 
---------------- Step     4950 ----- CPU =      0.7710 (sec) ----------------
TotEng   =     -1077.9414 KinEng   =       213.3491 Temp     =       304.5711 
PotEng   =     -1291.2905 E_bond   =        95.3795 E_angle  =        66.7903 
E_dihed  =        14.8457 E_impro  =         3.2471 E_vdwl   =      -868.5724 
E_coul   =      -602.9808 E_long   =         0.0000 Press    =        -3.0848 
---------------- Step     5000 ----- CPU =      0.7790 (sec) ----------------
TotEng   =     -1064.2720 KinEng   =       213.8542 Temp     =       305.2921 
PotEng   =     -1278.1262 E_bond   =        89.0756 E_angle  =        64.1968 
E_dihed  =        16.4495 E_impro  =         3.1754 E_vdwl   =      -847.9033 
E_coul   =      -603.1201 E_long   =         0.0000 Press    =         0.7185 
---------------- Step     5050 ----- CPU =      0.7859 (sec) ----------------
TotEng   =     -1060.6424 KinEng   =       211.3541 Temp     =       301.7230 
PotEng   =     -1271.9965 E_bond   =        94.5927 E_angle  =        65.4920 
E_dihed  =        13.1362 E_impro  =         3.8193 E_vdwl   =      -854.1334 
E_coul   =      -594.9033 E_long   =         0.0000 Press    =         0.3749 
---------------- Step     5100 ----- CPU =      0.7939 (sec) ----------------
TotEng   =     -1085.6965 KinEng   =       189.9004 Temp     =       271.0963 
PotEng   =     -1275.5968 E_bond   =        96.1596 E_angle  =        64.1212 
E_dihed  =        17.0866 E_impro  =         3.1873 E_vdwl   =      -853.9882 
E_coul   =      -602.1634 E_long   =         0.0000 Press    =         0.5741 
---------------- Step     5150 ----- CPU =      0.8019 (sec) ----------------
TotEng   =     -1081.2470 KinEng   =       200.0102 Temp     =       285.5288 
PotEng   =     -1281.2572 E_bond   =        91.0676 E_angle  =        65.0750 
E_dihed  =        20.7558 E_impro  =         3.1815 E_vdwl   =      -860.8544 
E_coul   =      -600.4826 E_long   =         0.0000 Press    =        -0.1727 
---------------- Step     5200 ----- CPU =      0.8099 (sec) ----------------
TotEng   =     -1088.9679 KinEng   =       196.6687 Temp     =       280.7587 
PotEng   =     -1285.6366 E_bond   =        93.4637 E_angle  =        65.2003 
E_dihed  =        17.2437 E_impro  =         3.3066 E_vdwl   =      -872.9327 
E_coul   =      -591.9183 E_long   =         0.0000 Press    =        -2.3450 
---------------- Step     5250 ----- CPU =      0.8180 (sec) ----------------
TotEng   =     -1067.0981 KinEng   =       223.0429 Temp     =       318.4096 
PotEng   =     -1290.1410 E_bond   =        97.3239 E_angle  =        64.1864 
E_dihed  =        17.3595 E_impro  =         2.9379 E_vdwl   =      -873.6950 
E_coul   =      -598.2537 E_long   =         0.0000 Press    =        -3.9717 
---------------- Step     5300 ----- CPU =      0.8259 (sec) ----------------
TotEng   =     -1091.8427 KinEng   =       208.3901 Temp     =       297.4918 
PotEng   =     -1300.2328 E_bond   =       106.6964 E_angle  =        63.2624 
E_dihed  =        18.0589 E_impro  =         3.3050 E_vdwl   =      -888.6247 
E_coul   =      -602.9309 E_long   =         0.0000 Press    =        -7.9558 
---------------- Step     5350 ----- CPU =      0.8339 (sec) ----------------
TotEng   =     -1067.6940 KinEng   =       232.0381 Temp     =       331.2510 
PotEng   =     -1299.7321 E_bond   =       101.3258 E_angle  =        64.7561 
E_dihed  =        15.2111 E_impro  =         2.7846 E_vdwl   =      -867.8783 
E_coul   =      -615.9315 E_long   =         0.0000 Press    =        -3.5917 
---------------- Step     5400 ----- CPU =      0.8410 (sec) ----------------
TotEng   =     -1107.7521 KinEng   =       208.3860 Temp     =       297.4859 
PotEng   =     -1316.1382 E_bond   =        86.0230 E_angle  =        63.4988 
E_dihed  =        13.2042 E_impro  =         3.0165 E_vdwl   =      -869.4941 
E_coul   =      -612.3865 E_long   =         0.0000 Press    =        -2.4944 
---------------- Step     5450 ----- CPU =      0.8499 (sec) ----------------
TotEng   =     -1120.8652 KinEng   =       193.0131 Temp     =       275.5399 
PotEng   =     -1313.8783 E_bond   =        79.3969 E_angle  =        66.2098 
E_dihed  =        15.7956 E_impro  =         3.2123 E_vdwl   =      -862.1834 
E_coul   =      -616.3096 E_long   =         0.0000 Press    =        -4.0617 
---------------- Step     5500 ----- CPU =      0.8580 (sec) ----------------
TotEng   =     -1099.1672 KinEng   =       214.5395 Temp     =       306.2705 
PotEng   =     -1313.7067 E_bond   =        86.3908 E_angle  =        68.7590 
E_dihed  =        15.7610 E_impro  =         2.6547 E_vdwl   =      -860.8378 
E_coul   =      -626.4344 E_long   =         0.0000 Press    =        -2.1009 
---------------- Step     5550 ----- CPU =      0.8660 (sec) ----------------
TotEng   =     -1112.5747 KinEng   =       205.5351 Temp     =       293.4160 
PotEng   =     -1318.1097 E_bond   =        86.0489 E_angle  =        73.6276 
E_dihed  =        14.0257 E_impro  =         3.1247 E_vdwl   =      -864.1573 
E_coul   =      -630.7793 E_long   =         0.0000 Press    =        -1.9908 
---------------- Step     5600 ----- CPU =      0.8730 (sec) ----------------
TotEng   =     -1113.1706 KinEng   =       197.5784 Temp     =       282.0573 
PotEng   =     -1310.7490 E_bond   =        77.2576 E_angle  =        73.1376 
E_dihed  =        22.1278 E_impro  =         2.4635 E_vdwl   =      -863.1347 
E_coul   =      -622.6008 E_long   =         0.0000 Press    =        -2.8296 
---------------- Step     5650 ----- CPU =      0.8809 (sec) ----------------
TotEng   =     -1099.3766 KinEng   =       210.4598 Temp     =       300.4465 
PotEng   =     -1309.8364 E_bond   =        91.0543 E_angle  =        67.6020 
E_dihed  =        17.9927 E_impro  =         2.5142 E_vdwl   =      -882.6101 
E_coul   =      -606.3895 E_long   =         0.0000 Press    =        -4.4969 
---------------- Step     5700 ----- CPU =      0.8890 (sec) ----------------
TotEng   =     -1081.2380 KinEng   =       233.0261 Temp     =       332.6614 
PotEng   =     -1314.2641 E_bond   =        88.4300 E_angle  =        66.3501 
E_dihed  =        19.3683 E_impro  =         2.6465 E_vdwl   =      -875.6240 
E_coul   =      -615.4350 E_long   =         0.0000 Press    =        -2.6134 
---------------- Step     5750 ----- CPU =      0.8970 (sec) ----------------
TotEng   =     -1118.2612 KinEng   =       193.8065 Temp     =       276.6726 
PotEng   =     -1312.0677 E_bond   =        91.3652 E_angle  =        71.1433 
E_dihed  =        14.4811 E_impro  =         2.2430 E_vdwl   =      -865.8907 
E_coul   =      -625.4096 E_long   =         0.0000 Press    =        -1.9729 
---------------- Step     5800 ----- CPU =      0.9040 (sec) ----------------
TotEng   =     -1098.4010 KinEng   =       205.5451 Temp     =       293.4302 
PotEng   =     -1303.9460 E_bond   =        91.4621 E_angle  =        69.6376 
E_dihed  =        18.8452 E_impro  =         2.9187 E_vdwl   =      -847.9484 
E_coul   =      -638.8612 E_long   =         0.0000 Press    =        -0.5789 
---------------- Step     5850 ----- CPU =      0.9119 (sec) ----------------
TotEng   =     -1093.0564 KinEng   =       218.6243 Temp     =       312.1018 
PotEng   =     -1311.6807 E_bond   =        84.0827 E_angle  =        74.1223 
E_dihed  =        17.1072 E_impro  =         4.4349 E_vdwl   =      -846.8356 
E_coul   =      -644.5923 E_long   =         0.0000 Press    =         0.0191 
---------------- Step     5900 ----- CPU =      0.9189 (sec) ----------------
TotEng   =     -1093.6367 KinEng   =       234.4932 Temp     =       334.7558 
PotEng   =     -1328.1299 E_bond   =        79.5086 E_angle  =        70.2653 
E_dihed  =        16.8282 E_impro  =         5.7609 E_vdwl   =      -855.3864 
E_coul   =      -645.1065 E_long   =         0.0000 Press    =         0.4171 
---------------- Step     5950 ----- CPU =      0.9269 (sec) ----------------
TotEng   =     -1104.1866 KinEng   =       227.5400 Temp     =       324.8296 
PotEng   =     -1331.7266 E_bond   =        76.7628 E_angle  =        68.2343 
E_dihed  =        18.5170 E_impro  =         5.4902 E_vdwl   =      -868.8400 
E_coul   =      -631.8909 E_long   =         0.0000 Press    =        -2.0161 
---------------- Step     6000 ----- CPU =      0.9349 (sec) ----------------
TotEng   =     -1111.1882 KinEng   =       212.3198 Temp     =       303.1017 
PotEng   =     -1323.5080 E_bond   =        89.2837 E_angle  =        69.0240 
E_dihed  =        18.2715 E_impro  =         4.8844 E_vdwl   =      -869.7867 
E_coul   =      -635.1849 E_long   =         0.0000 Press    =        -1.4366 
---------------- Step     6050 ----- CPU =      0.9430 (sec) ----------------
TotEng   =     -1139.3499 KinEng   =       192.4319 Temp     =       274.7103 
PotEng   =     -1331.7817 E_bond   =        91.0048 E_angle  =        67.7652 
E_dihed  =        18.0721 E_impro  =         3.3279 E_vdwl   =      -870.6026 
E_coul   =      -641.3492 E_long   =         0.0000 Press    =        -2.6515 
---------------- Step     6100 ----- CPU =      0.9520 (sec) ----------------
TotEng   =     -1123.5040 KinEng   =       213.5702 Temp     =       304.8868 
PotEng   =     -1337.0742 E_bond   =        79.1715 E_angle  =        66.6773 
E_dihed  =        18.4486 E_impro  =         3.6904 E_vdwl   =      -866.1771 
E_coul   =      -638.8849 E_long   =         0.0000 Press    =         0.4034 
---------------- Step     6150 ----- CPU =      0.9599 (sec) ----------------
TotEng   =     -1130.9168 KinEng   =       196.4432 Temp     =       280.4367 
PotEng   =     -1327.3600 E_bond   =        84.0991 E_angle  =        71.9786 
E_dihed  =        18.0193 E_impro  =         3.8513 E_vdwl   =      -868.3355 
E_coul   =      -636.9728 E_long   =         0.0000 Press    =         0.3612 
---------------- Step     6200 ----- CPU =      0.9675 (sec) ----------------
TotEng   =     -1113.8659 KinEng   =       208.0722 Temp     =       297.0380 
PotEng   =     -1321.9381 E_bond   =        90.4994 E_angle  =        75.7181 
E_dihed  =        18.4463 E_impro  =         3.8762 E_vdwl   =      -863.6963 
E_coul   =      -646.7818 E_long   =         0.0000 Press    =        -1.4545 
---------------- Step     6250 ----- CPU =      0.9755 (sec) ----------------
TotEng   =     -1118.4696 KinEng   =       212.3529 Temp     =       303.1489 
PotEng   =     -1330.8225 E_bond   =        81.3240 E_angle  =        74.6080 
E_dihed  =        18.9446 E_impro  =         4.7162 E_vdwl   =      -852.0233 
E_coul   =      -658.3920 E_long   =         0.0000 Press    =         0.2510 
---------------- Step     6300 ----- CPU =      0.9835 (sec) ----------------
TotEng   =     -1135.8118 KinEng   =       203.9182 Temp     =       291.1078 
PotEng   =     -1339.7300 E_bond   =        79.3397 E_angle  =        73.4530 
E_dihed  =        17.7524 E_impro  =         4.2932 E_vdwl   =      -862.7472 
E_coul   =      -651.8211 E_long   =         0.0000 Press    =        -1.3023 
---------------- Step     6350 ----- CPU =      0.9914 (sec) ----------------
TotEng   =     -1141.4765 KinEng   =       202.8222 Temp     =       289.5432 
PotEng   =     -1344.2988 E_bond   =        82.1693 E_angle  =        74.6806 
E_dihed  =        17.7399 E_impro  =         3.8253 E_vdwl   =      -873.4376 
E_coul   =      -649.2764 E_long   =         0.0000 Press    =        -3.7141 
---------------- Step     6400 ----- CPU =      0.9994 (sec) ----------------
TotEng   =     -1136.8359 KinEng   =       202.1525 Temp     =       288.5872 
PotEng   =     -1338.9884 E_bond   =        90.5910 E_angle  =        69.3214 
E_dihed  =        20.7405 E_impro  =         3.7115 E_vdwl   =      -871.8721 
E_coul   =      -651.4807 E_long   =         0.0000 Press    =        -1.7903 
---------------- Step     6450 ----- CPU =      1.0079 (sec) ----------------
TotEng   =     -1150.6373 KinEng   =       190.8732 Temp     =       272.4851 
PotEng   =     -1341.5105 E_bond   =        79.9867 E_angle  =        71.4633 
E_dihed  =        14.0658 E_impro  =         3.7427 E_vdwl   =      -869.2743 
E_coul   =      -641.4947 E_long   =         0.0000 Press    =        -1.3562 
---------------- Step     6500 ----- CPU =      1.0162 (sec) ----------------
TotEng   =     -1119.8648 KinEng   =       204.9450 Temp     =       292.5736 
PotEng   =     -1324.8098 E_bond   =       100.7061 E_angle  =        77.5793 
E_dihed  =        15.9717 E_impro  =         3.4157 E_vdwl   =      -879.9266 
E_coul   =      -642.5559 E_long   =         0.0000 Press    =        -5.1652 
---------------- Step     6550 ----- CPU =      1.0242 (sec) ----------------
TotEng   =     -1143.3176 KinEng   =       194.6359 Temp     =       277.8567 
PotEng   =     -1337.9535 E_bond   =        90.7674 E_angle  =        72.3724 
E_dihed  =        22.3833 E_impro  =         4.8131 E_vdwl   =      -870.4919 
E_coul   =      -657.7978 E_long   =         0.0000 Press    =        -2.7523 
---------------- Step     6600 ----- CPU =      1.0311 (sec) ----------------
TotEng   =     -1130.6915 KinEng   =       211.6601 Temp     =       302.1599 
PotEng   =     -1342.3516 E_bond   =        86.9494 E_angle  =        72.1026 
E_dihed  =        17.4811 E_impro  =         3.8059 E_vdwl   =      -862.2435 
E_coul   =      -660.4470 E_long   =         0.0000 Press    =        -2.0768 
---------------- Step     6650 ----- CPU =      1.0392 (sec) ----------------
TotEng   =     -1107.5402 KinEng   =       221.8691 Temp     =       316.7340 
PotEng   =     -1329.4093 E_bond   =        94.5892 E_angle  =        71.7876 
E_dihed  =        19.0616 E_impro  =         3.4876 E_vdwl   =      -865.3391 
E_coul   =      -652.9962 E_long   =         0.0000 Press    =         0.7815 
---------------- Step     6700 ----- CPU =      1.0472 (sec) ----------------
TotEng   =     -1111.7642 KinEng   =       208.7149 Temp     =       297.9555 
PotEng   =     -1320.4792 E_bond   =       104.7281 E_angle  =        73.4038 
E_dihed  =        18.7170 E_impro  =         3.5598 E_vdwl   =      -865.7479 
E_coul   =      -655.1399 E_long   =         0.0000 Press    =         0.3251 
---------------- Step     6750 ----- CPU =      1.0552 (sec) ----------------
TotEng   =     -1124.5286 KinEng   =       223.2614 Temp     =       318.7216 
PotEng   =     -1347.7899 E_bond   =        85.2421 E_angle  =        68.5763 
E_dihed  =        18.9039 E_impro  =         2.6763 E_vdwl   =      -870.3406 
E_coul   =      -652.8480 E_long   =         0.0000 Press    =        -1.7455 
---------------- Step     6800 ----- CPU =      1.0631 (sec) ----------------
TotEng   =     -1117.3162 KinEng   =       213.7934 Temp     =       305.2053 
PotEng   =     -1331.1096 E_bond   =        94.0103 E_angle  =        68.8869 
E_dihed  =        18.3323 E_impro  =         2.9248 E_vdwl   =      -863.5370 
E_coul   =      -651.7268 E_long   =         0.0000 Press    =        -1.0946 
---------------- Step     6850 ----- CPU =      1.0712 (sec) ----------------
TotEng   =     -1128.6945 KinEng   =       214.8964 Temp     =       306.7800 
PotEng   =     -1343.5909 E_bond   =        80.6653 E_angle  =        66.0589 
E_dihed  =        18.9763 E_impro  =         3.4713 E_vdwl   =      -870.2799 
E_coul   =      -642.4829 E_long   =         0.0000 Press    =        -2.8805 
---------------- Step     6900 ----- CPU =      1.0792 (sec) ----------------
TotEng   =     -1154.2017 KinEng   =       202.0558 Temp     =       288.4491 
PotEng   =     -1356.2575 E_bond   =        81.4705 E_angle  =        61.3083 
E_dihed  =        17.7020 E_impro  =         2.9707 E_vdwl   =      -873.7447 
E_coul   =      -645.9644 E_long   =         0.0000 Press    =        -3.6254 
---------------- Step     6950 ----- CPU =      1.0872 (sec) ----------------
TotEng   =     -1135.9553 KinEng   =       207.8942 Temp     =       296.7838 
PotEng   =     -1343.8495 E_bond   =        88.9181 E_angle  =        63.2619 
E_dihed  =        14.6161 E_impro  =         3.6183 E_vdwl   =      -865.0170 
E_coul   =      -649.2469 E_long   =         0.0000 Press    =        -2.3636 
---------------- Step     7000 ----- CPU =      1.0942 (sec) ----------------
TotEng   =     -1125.1649 KinEng   =       219.9595 Temp     =       314.0080 
PotEng   =     -1345.1245 E_bond   =        88.4866 E_angle  =        62.0774 
E_dihed  =        20.4257 E_impro  =         5.0975 E_vdwl   =      -860.1128 
E_coul   =      -661.0989 E_long   =         0.0000 Press    =        -0.5447 
---------------- Step     7050 ----- CPU =      1.1022 (sec) ----------------
TotEng   =     -1138.7616 KinEng   =       205.5965 Temp     =       293.5037 
PotEng   =     -1344.3581 E_bond   =        87.9448 E_angle  =        63.8653 
E_dihed  =        19.9159 E_impro  =         4.6626 E_vdwl   =      -861.2304 
E_coul   =      -659.5163 E_long   =         0.0000 Press    =        -0.2359 
---------------- Step     7100 ----- CPU =      1.1102 (sec) ----------------
TotEng   =     -1132.1513 KinEng   =       212.3900 Temp     =       303.2018 
PotEng   =     -1344.5413 E_bond   =        85.0742 E_angle  =        67.0270 
E_dihed  =        17.0073 E_impro  =         4.7638 E_vdwl   =      -861.0027 
E_coul   =      -657.4109 E_long   =         0.0000 Press    =        -0.1562 
---------------- Step     7150 ----- CPU =      1.1182 (sec) ----------------
TotEng   =     -1133.3881 KinEng   =       211.0850 Temp     =       301.3389 
PotEng   =     -1344.4731 E_bond   =        84.3444 E_angle  =        67.1890 
E_dihed  =        17.1543 E_impro  =         5.2975 E_vdwl   =      -848.3241 
E_coul   =      -670.1342 E_long   =         0.0000 Press    =         0.9692 
---------------- Step     7200 ----- CPU =      1.1262 (sec) ----------------
TotEng   =     -1143.0695 KinEng   =       208.1723 Temp     =       297.1809 
PotEng   =     -1351.2418 E_bond   =        85.0523 E_angle  =        60.6181 
E_dihed  =        17.0522 E_impro  =         4.3858 E_vdwl   =      -853.7041 
E_coul   =      -664.6463 E_long   =         0.0000 Press    =         1.0047 
---------------- Step     7250 ----- CPU =      1.1342 (sec) ----------------
TotEng   =     -1155.1142 KinEng   =       203.9960 Temp     =       291.2189 
PotEng   =     -1359.1103 E_bond   =        77.4765 E_angle  =        64.6754 
E_dihed  =        18.4784 E_impro  =         4.5102 E_vdwl   =      -864.7914 
E_coul   =      -659.4594 E_long   =         0.0000 Press    =        -1.2628 
---------------- Step     7300 ----- CPU =      1.1422 (sec) ----------------
TotEng   =     -1177.0336 KinEng   =       188.2764 Temp     =       268.7779 
PotEng   =     -1365.3100 E_bond   =        82.5967 E_angle  =        62.9193 
E_dihed  =        17.4966 E_impro  =         4.0043 E_vdwl   =      -869.8770 
E_coul   =      -662.4498 E_long   =         0.0000 Press    =        -3.3154 
---------------- Step     7350 ----- CPU =      1.1502 (sec) ----------------
TotEng   =     -1142.2715 KinEng   =       217.4301 Temp     =       310.3969 
PotEng   =     -1359.7016 E_bond   =        81.9135 E_angle  =        63.2338 
E_dihed  =        15.0116 E_impro  =         3.4977 E_vdwl   =      -859.5379 
E_coul   =      -663.8203 E_long   =         0.0000 Press    =        -1.0356 
---------------- Step     7400 ----- CPU =      1.1572 (sec) ----------------
TotEng   =     -1164.8288 KinEng   =       209.6855 Temp     =       299.3410 
PotEng   =     -1374.5143 E_bond   =        77.5952 E_angle  =        60.8704 
E_dihed  =        18.5091 E_impro  =         4.2457 E_vdwl   =      -864.7972 
E_coul   =      -670.9375 E_long   =         0.0000 Press    =        -2.6534 
---------------- Step     7450 ----- CPU =      1.1661 (sec) ----------------
TotEng   =     -1166.7763 KinEng   =       195.9338 Temp     =       279.7095 
PotEng   =     -1362.7101 E_bond   =        92.5989 E_angle  =        65.7574 
E_dihed  =        17.4283 E_impro  =         3.6681 E_vdwl   =      -875.8739 
E_coul   =      -666.2889 E_long   =         0.0000 Press    =        -5.4346 
---------------- Step     7500 ----- CPU =      1.1731 (sec) ----------------
TotEng   =     -1155.9983 KinEng   =       218.6725 Temp     =       312.1706 
PotEng   =     -1374.6708 E_bond   =        85.9461 E_angle  =        62.0790 
E_dihed  =        18.9632 E_impro  =         3.6409 E_vdwl   =      -879.2339 
E_coul   =      -666.0660 E_long   =         0.0000 Press    =        -3.2399 
---------------- Step     7550 ----- CPU =      1.1822 (sec) ----------------
TotEng   =     -1149.6820 KinEng   =       217.8147 Temp     =       310.9460 
PotEng   =     -1367.4967 E_bond   =        88.1251 E_angle  =        64.6094 
E_dihed  =        21.1085 E_impro  =         3.8346 E_vdwl   =      -880.5099 
E_coul   =      -664.6644 E_long   =         0.0000 Press    =        -5.3259 
---------------- Step     7600 ----- CPU =      1.1892 (sec) ----------------
TotEng   =     -1162.5292 KinEng   =       206.9147 Temp     =       295.3855 
PotEng   =     -1369.4439 E_bond   =        87.8230 E_angle  =        58.3432 
E_dihed  =        23.5276 E_impro  =         2.5644 E_vdwl   =      -875.8866 
E_coul   =      -665.8155 E_long   =         0.0000 Press    =        -3.9713 
---------------- Step     7650 ----- CPU =      1.1972 (sec) ----------------
TotEng   =     -1161.7147 KinEng   =       213.4348 Temp     =       304.6934 
PotEng   =     -1375.1495 E_bond   =        88.6715 E_angle  =        58.1747 
E_dihed  =        21.2573 E_impro  =         2.5438 E_vdwl   =      -870.5511 
E_coul   =      -675.2455 E_long   =         0.0000 Press    =        -1.8506 
---------------- Step     7700 ----- CPU =      1.2052 (sec) ----------------
TotEng   =     -1138.5754 KinEng   =       236.1108 Temp     =       337.0651 
PotEng   =     -1374.6863 E_bond   =        87.6734 E_angle  =        57.8276 
E_dihed  =        22.0274 E_impro  =         2.4722 E_vdwl   =      -871.6268 
E_coul   =      -673.0600 E_long   =         0.0000 Press    =        -1.0251 
---------------- Step     7750 ----- CPU =      1.2132 (sec) ----------------
TotEng   =     -1165.3227 KinEng   =       203.2238 Temp     =       290.1164 
PotEng   =     -1368.5465 E_bond   =        95.4923 E_angle  =        63.4063 
E_dihed  =        19.2349 E_impro  =         3.1666 E_vdwl   =      -876.2472 
E_coul   =      -673.5995 E_long   =         0.0000 Press    =        -2.3470 
---------------- Step     7800 ----- CPU =      1.2212 (sec) ----------------
TotEng   =     -1140.9634 KinEng   =       214.9968 Temp     =       306.9233 
PotEng   =     -1355.9602 E_bond   =       103.3795 E_angle  =        64.3219 
E_dihed  =        16.6206 E_impro  =         3.1169 E_vdwl   =      -873.3957 
E_coul   =      -670.0034 E_long   =         0.0000 Press    =        -1.7648 
---------------- Step     7850 ----- CPU =      1.2282 (sec) ----------------
TotEng   =     -1143.6302 KinEng   =       213.3359 Temp     =       304.5523 
PotEng   =     -1356.9661 E_bond   =        99.8950 E_angle  =        63.8141 
E_dihed  =        19.1280 E_impro  =         1.9684 E_vdwl   =      -860.0424 
E_coul   =      -681.7293 E_long   =         0.0000 Press    =        -0.1578 
---------------- Step     7900 ----- CPU =      1.2372 (sec) ----------------
TotEng   =     -1161.9192 KinEng   =       205.1891 Temp     =       292.9222 
PotEng   =     -1367.1083 E_bond   =        97.6286 E_angle  =        59.9013 
E_dihed  =        20.2555 E_impro  =         2.4490 E_vdwl   =      -874.6778 
E_coul   =      -672.6651 E_long   =         0.0000 Press    =        -0.4549 
---------------- Step     7950 ----- CPU =      1.2442 (sec) ----------------
TotEng   =     -1179.4117 KinEng   =       194.7510 Temp     =       278.0210 
PotEng   =     -1374.1627 E_bond   =        97.1969 E_angle  =        61.0571 
E_dihed  =        21.4276 E_impro  =         2.7550 E_vdwl   =      -883.8120 
E_coul   =      -672.7873 E_long   =         0.0000 Press    =        -2.4458 
---------------- Step     8000 ----- CPU =      1.2522 (sec) ----------------
TotEng   =     -1151.6282 KinEng   =       214.0667 Temp     =       305.5954 
PotEng   =     -1365.6949 E_bond   =       105.3109 E_angle  =        62.8840 
E_dihed  =        21.0971 E_impro  =         3.1570 E_vdwl   =      -888.4739 
E_coul   =      -669.6701 E_long   =         0.0000 Press    =        -3.1153 
---------------- Step     8050 ----- CPU =      1.2602 (sec) ----------------
TotEng   =     -1145.4304 KinEng   =       225.5142 Temp     =       321.9376 
PotEng   =     -1370.9446 E_bond   =       102.2314 E_angle  =        65.0591 
E_dihed  =        17.5482 E_impro  =         3.7296 E_vdwl   =      -892.2899 
E_coul   =      -667.2230 E_long   =         0.0000 Press    =        -2.5092 
---------------- Step     8100 ----- CPU =      1.2692 (sec) ----------------
TotEng   =     -1164.8411 KinEng   =       211.1596 Temp     =       301.4454 
PotEng   =     -1376.0007 E_bond   =        98.4806 E_angle  =        65.8171 
E_dihed  =        19.9475 E_impro  =         3.3079 E_vdwl   =      -892.7177 
E_coul   =      -670.8361 E_long   =         0.0000 Press    =        -1.2120 
---------------- Step     8150 ----- CPU =      1.2772 (sec) ----------------
TotEng   =     -1159.0845 KinEng   =       210.0511 Temp     =       299.8630 
PotEng   =     -1369.1357 E_bond   =        98.1075 E_angle  =        63.3567 
E_dihed  =        20.2195 E_impro  =         2.6589 E_vdwl   =      -873.1798 
E_coul   =      -680.2984 E_long   =         0.0000 Press    =        -0.7558 
---------------- Step     8200 ----- CPU =      1.2852 (sec) ----------------
TotEng   =     -1171.0321 KinEng   =       201.6796 Temp     =       287.9120 
PotEng   =     -1372.7117 E_bond   =       103.5062 E_angle  =        62.8298 
E_dihed  =        20.3194 E_impro  =         3.2787 E_vdwl   =      -881.4343 
E_coul   =      -681.2115 E_long   =         0.0000 Press    =        -1.2481 
---------------- Step     8250 ----- CPU =      1.2932 (sec) ----------------
TotEng   =     -1150.0861 KinEng   =       211.3250 Temp     =       301.6815 
PotEng   =     -1361.4111 E_bond   =       106.1323 E_angle  =        61.3556 
E_dihed  =        21.5876 E_impro  =         3.7303 E_vdwl   =      -863.5999 
E_coul   =      -690.6169 E_long   =         0.0000 Press    =         2.7418 
---------------- Step     8300 ----- CPU =      1.3002 (sec) ----------------
TotEng   =     -1147.2010 KinEng   =       219.4976 Temp     =       313.3485 
PotEng   =     -1366.6986 E_bond   =        93.9945 E_angle  =        60.7784 
E_dihed  =        21.9319 E_impro  =         3.4403 E_vdwl   =      -861.0393 
E_coul   =      -685.8045 E_long   =         0.0000 Press    =         2.7762 
---------------- Step     8350 ----- CPU =      1.3092 (sec) ----------------
TotEng   =     -1154.2099 KinEng   =       226.7661 Temp     =       323.7249 
PotEng   =     -1380.9761 E_bond   =       101.9810 E_angle  =        55.3187 
E_dihed  =        23.6256 E_impro  =         1.6689 E_vdwl   =      -877.8481 
E_coul   =      -685.7220 E_long   =         0.0000 Press    =         1.9122 
---------------- Step     8400 ----- CPU =      1.3172 (sec) ----------------
TotEng   =     -1191.0803 KinEng   =       203.0619 Temp     =       289.8854 
PotEng   =     -1394.1422 E_bond   =        85.9564 E_angle  =        57.2853 
E_dihed  =        23.5225 E_impro  =         1.7266 E_vdwl   =      -867.8376 
E_coul   =      -694.7954 E_long   =         0.0000 Press    =         1.2649 
---------------- Step     8450 ----- CPU =      1.3242 (sec) ----------------
TotEng   =     -1176.9885 KinEng   =       218.3670 Temp     =       311.7345 
PotEng   =     -1395.3555 E_bond   =        83.9236 E_angle  =        57.2582 
E_dihed  =        21.2957 E_impro  =         2.7484 E_vdwl   =      -864.3159 
E_coul   =      -696.2657 E_long   =         0.0000 Press    =         0.6612 
---------------- Step     8500 ----- CPU =      1.3332 (sec) ----------------
TotEng   =     -1183.8939 KinEng   =       207.6700 Temp     =       296.4638 
PotEng   =     -1391.5639 E_bond   =        86.4794 E_angle  =        60.7766 
E_dihed  =        21.6612 E_impro  =         3.1602 E_vdwl   =      -873.2250 
E_coul   =      -690.4162 E_long   =         0.0000 Press    =        -1.5010 
---------------- Step     8550 ----- CPU =      1.3412 (sec) ----------------
TotEng   =     -1190.8584 KinEng   =       204.0096 Temp     =       291.2382 
PotEng   =     -1394.8680 E_bond   =        89.1052 E_angle  =        60.3064 
E_dihed  =        19.3601 E_impro  =         2.9399 E_vdwl   =      -871.7665 
E_coul   =      -694.8131 E_long   =         0.0000 Press    =        -0.1500 
---------------- Step     8600 ----- CPU =      1.3492 (sec) ----------------
TotEng   =     -1179.6676 KinEng   =       208.0864 Temp     =       297.0581 
PotEng   =     -1387.7540 E_bond   =        95.3833 E_angle  =        57.3515 
E_dihed  =        19.9075 E_impro  =         5.0991 E_vdwl   =      -869.0916 
E_coul   =      -696.4037 E_long   =         0.0000 Press    =        -0.0982 
---------------- Step     8650 ----- CPU =      1.3582 (sec) ----------------
TotEng   =     -1181.3458 KinEng   =       215.1012 Temp     =       307.0723 
PotEng   =     -1396.4470 E_bond   =        87.4986 E_angle  =        57.1033 
E_dihed  =        20.9442 E_impro  =         2.6918 E_vdwl   =      -872.3168 
E_coul   =      -692.3682 E_long   =         0.0000 Press    =         0.8045 
---------------- Step     8700 ----- CPU =      1.3652 (sec) ----------------
TotEng   =     -1198.1079 KinEng   =       196.2408 Temp     =       280.1478 
PotEng   =     -1394.3488 E_bond   =        94.4571 E_angle  =        60.2689 
E_dihed  =        18.5172 E_impro  =         1.9908 E_vdwl   =      -873.7820 
E_coul   =      -695.8009 E_long   =         0.0000 Press    =         1.2376 
---------------- Step     8750 ----- CPU =      1.3732 (sec) ----------------
TotEng   =     -1182.8439 KinEng   =       208.0906 Temp     =       297.0643 
PotEng   =     -1390.9345 E_bond   =        93.9042 E_angle  =        58.2935 
E_dihed  =        18.4325 E_impro  =         2.6674 E_vdwl   =      -883.1217 
E_coul   =      -681.1105 E_long   =         0.0000 Press    =        -0.1001 
---------------- Step     8800 ----- CPU =      1.3822 (sec) ----------------
TotEng   =     -1182.5228 KinEng   =       203.0482 Temp     =       289.8659 
PotEng   =     -1385.5711 E_bond   =        99.0190 E_angle  =        56.7549 
E_dihed  =        15.8996 E_impro  =         2.6410 E_vdwl   =      -874.2448 
E_coul   =      -685.6409 E_long   =         0.0000 Press    =         0.3446 
---------------- Step     8850 ----- CPU =      1.3892 (sec) ----------------
TotEng   =     -1166.6393 KinEng   =       219.1572 Temp     =       312.8625 
PotEng   =     -1385.7965 E_bond   =       107.1236 E_angle  =        58.3835 
E_dihed  =        16.6643 E_impro  =         3.3168 E_vdwl   =      -881.3482 
E_coul   =      -689.9363 E_long   =         0.0000 Press    =        -0.8465 
---------------- Step     8900 ----- CPU =      1.3972 (sec) ----------------
TotEng   =     -1181.0910 KinEng   =       210.3593 Temp     =       300.3029 
PotEng   =     -1391.4504 E_bond   =       100.4920 E_angle  =        57.4967 
E_dihed  =        17.6681 E_impro  =         3.0625 E_vdwl   =      -885.9756 
E_coul   =      -684.1940 E_long   =         0.0000 Press    =        -1.7022 
---------------- Step     8950 ----- CPU =      1.4062 (sec) ----------------
TotEng   =     -1178.2726 KinEng   =       220.3279 Temp     =       314.5338 
PotEng   =     -1398.6005 E_bond   =       101.0092 E_angle  =        61.3537 
E_dihed  =        16.6004 E_impro  =         3.0528 E_vdwl   =      -882.8944 
E_coul   =      -697.7222 E_long   =         0.0000 Press    =         0.0238 
---------------- Step     9000 ----- CPU =      1.4132 (sec) ----------------
TotEng   =     -1186.4047 KinEng   =       210.7969 Temp     =       300.9277 
PotEng   =     -1397.2016 E_bond   =        97.9401 E_angle  =        59.8758 
E_dihed  =        18.9961 E_impro  =         3.3784 E_vdwl   =      -876.3249 
E_coul   =      -701.0670 E_long   =         0.0000 Press    =         0.4255 
---------------- Step     9050 ----- CPU =      1.4232 (sec) ----------------
TotEng   =     -1203.4607 KinEng   =       199.3216 Temp     =       284.5458 
PotEng   =     -1402.7822 E_bond   =        94.2414 E_angle  =        53.2590 
E_dihed  =        21.4143 E_impro  =         3.1397 E_vdwl   =      -882.0058 
E_coul   =      -692.8308 E_long   =         0.0000 Press    =        -1.7386 
---------------- Step     9100 ----- CPU =      1.4302 (sec) ----------------
TotEng   =     -1200.6776 KinEng   =       214.8884 Temp     =       306.7685 
PotEng   =     -1415.5660 E_bond   =        77.3228 E_angle  =        57.4644 
E_dihed  =        16.7840 E_impro  =         3.0000 E_vdwl   =      -887.2364 
E_coul   =      -682.9008 E_long   =         0.0000 Press    =        -0.8192 
---------------- Step     9150 ----- CPU =      1.4382 (sec) ----------------
TotEng   =     -1173.3753 KinEng   =       224.1548 Temp     =       319.9970 
PotEng   =     -1397.5301 E_bond   =        99.2922 E_angle  =        56.3538 
E_dihed  =        20.9234 E_impro  =         2.8183 E_vdwl   =      -884.5284 
E_coul   =      -692.3894 E_long   =         0.0000 Press    =         1.2414 
---------------- Step     9200 ----- CPU =      1.4462 (sec) ----------------
TotEng   =     -1195.3415 KinEng   =       199.0988 Temp     =       284.2278 
PotEng   =     -1394.4403 E_bond   =       101.8781 E_angle  =        54.5554 
E_dihed  =        17.7087 E_impro  =         2.3726 E_vdwl   =      -885.1105 
E_coul   =      -685.8447 E_long   =         0.0000 Press    =        -0.1087 
---------------- Step     9250 ----- CPU =      1.4542 (sec) ----------------
TotEng   =     -1177.3519 KinEng   =       215.4191 Temp     =       307.5262 
PotEng   =     -1392.7711 E_bond   =        90.6415 E_angle  =        62.7569 
E_dihed  =        18.1109 E_impro  =         5.0287 E_vdwl   =      -881.4162 
E_coul   =      -687.8930 E_long   =         0.0000 Press    =        -0.0248 
---------------- Step     9300 ----- CPU =      1.4622 (sec) ----------------
TotEng   =     -1195.4462 KinEng   =       211.6041 Temp     =       302.0800 
PotEng   =     -1407.0503 E_bond   =        82.9711 E_angle  =        65.3931 
E_dihed  =        15.0515 E_impro  =         2.1480 E_vdwl   =      -886.4812 
E_coul   =      -686.1329 E_long   =         0.0000 Press    =        -0.6145 
---------------- Step     9350 ----- CPU =      1.4702 (sec) ----------------
TotEng   =     -1192.8652 KinEng   =       216.7179 Temp     =       309.3803 
PotEng   =     -1409.5831 E_bond   =        89.1405 E_angle  =        63.5555 
E_dihed  =        14.7070 E_impro  =         2.2590 E_vdwl   =      -894.5744 
E_coul   =      -684.6707 E_long   =         0.0000 Press    =         0.1832 
---------------- Step     9400 ----- CPU =      1.4782 (sec) ----------------
TotEng   =     -1194.9388 KinEng   =       203.2774 Temp     =       290.1930 
PotEng   =     -1398.2162 E_bond   =        95.2726 E_angle  =        68.2693 
E_dihed  =        11.2765 E_impro  =         1.9758 E_vdwl   =      -888.7428 
E_coul   =      -686.2677 E_long   =         0.0000 Press    =        -0.3309 
---------------- Step     9450 ----- CPU =      1.4862 (sec) ----------------
TotEng   =     -1202.9734 KinEng   =       206.4179 Temp     =       294.6763 
PotEng   =     -1409.3913 E_bond   =        86.0368 E_angle  =        70.8821 
E_dihed  =        12.0308 E_impro  =         3.2089 E_vdwl   =      -892.1089 
E_coul   =      -689.4409 E_long   =         0.0000 Press    =        -0.4674 
---------------- Step     9500 ----- CPU =      1.4942 (sec) ----------------
TotEng   =     -1195.5077 KinEng   =       209.1941 Temp     =       298.6395 
PotEng   =     -1404.7019 E_bond   =        87.1067 E_angle  =        63.0599 
E_dihed  =        16.5598 E_impro  =         2.5298 E_vdwl   =      -883.6171 
E_coul   =      -690.3409 E_long   =         0.0000 Press    =        -0.4695 
---------------- Step     9550 ----- CPU =      1.5032 (sec) ----------------
TotEng   =     -1180.9927 KinEng   =       217.1277 Temp     =       309.9654 
PotEng   =     -1398.1205 E_bond   =        85.1239 E_angle  =        64.9755 
E_dihed  =        13.5214 E_impro  =         2.9941 E_vdwl   =      -881.0885 
E_coul   =      -683.6469 E_long   =         0.0000 Press    =         1.1180 
---------------- Step     9600 ----- CPU =      1.5122 (sec) ----------------
TotEng   =     -1222.1313 KinEng   =       193.1588 Temp     =       275.7480 
PotEng   =     -1415.2900 E_bond   =        73.8081 E_angle  =        63.6108 
E_dihed  =        14.4703 E_impro  =         1.7870 E_vdwl   =      -882.3736 
E_coul   =      -686.5927 E_long   =         0.0000 Press    =         1.4688 
---------------- Step     9650 ----- CPU =      1.5222 (sec) ----------------
TotEng   =     -1171.9272 KinEng   =       228.8965 Temp     =       326.7661 
PotEng   =     -1400.8237 E_bond   =        81.4956 E_angle  =        61.5155 
E_dihed  =        14.2263 E_impro  =         1.9340 E_vdwl   =      -861.4910 
E_coul   =      -698.5042 E_long   =         0.0000 Press    =         3.8688 
---------------- Step     9700 ----- CPU =      1.5312 (sec) ----------------
TotEng   =     -1190.7892 KinEng   =       215.3685 Temp     =       307.4540 
PotEng   =     -1406.1578 E_bond   =        78.7161 E_angle  =        68.1744 
E_dihed  =        10.7916 E_impro  =         2.2253 E_vdwl   =      -871.5757 
E_coul   =      -694.4896 E_long   =         0.0000 Press    =         2.0899 
---------------- Step     9750 ----- CPU =      1.5412 (sec) ----------------
TotEng   =     -1173.9651 KinEng   =       206.6610 Temp     =       295.0234 
PotEng   =     -1380.6262 E_bond   =        90.3775 E_angle  =        72.5524 
E_dihed  =         9.1155 E_impro  =         2.3605 E_vdwl   =      -847.9709 
E_coul   =      -707.0611 E_long   =         0.0000 Press    =         3.8908 
---------------- Step     9800 ----- CPU =      1.5492 (sec) ----------------
TotEng   =     -1170.2550 KinEng   =       226.5982 Temp     =       323.4851 
PotEng   =     -1396.8532 E_bond   =        84.4750 E_angle  =        73.1830 
E_dihed  =        10.6951 E_impro  =         2.4583 E_vdwl   =      -859.9287 
E_coul   =      -707.7359 E_long   =         0.0000 Press    =         4.0485 
---------------- Step     9850 ----- CPU =      1.5592 (sec) ----------------
TotEng   =     -1184.2927 KinEng   =       227.0884 Temp     =       324.1849 
PotEng   =     -1411.3811 E_bond   =        77.8883 E_angle  =        72.9309 
[...]
PotEng   =     -1519.0793 E_bond   =        97.7109 E_angle  =        66.3221 
E_dihed  =        20.5788 E_impro  =         2.4039 E_vdwl   =      -899.9803 
E_coul   =      -806.1147 E_long   =         0.0000 Press    =         2.7431 
---------------- Step    77700 ----- CPU =     12.6407 (sec) ----------------
TotEng   =     -1332.8255 KinEng   =       186.7934 Temp     =       266.6610 
PotEng   =     -1519.6190 E_bond   =        97.3044 E_angle  =        67.1871 
E_dihed  =        15.9855 E_impro  =         2.2907 E_vdwl   =      -905.5371 
E_coul   =      -796.8495 E_long   =         0.0000 Press    =         2.5990 
---------------- Step    77750 ----- CPU =     12.6497 (sec) ----------------
TotEng   =     -1301.8583 KinEng   =       211.9394 Temp     =       302.5586 
PotEng   =     -1513.7977 E_bond   =        99.7155 E_angle  =        64.7516 
E_dihed  =        19.4872 E_impro  =         2.3797 E_vdwl   =      -909.0966 
E_coul   =      -791.0351 E_long   =         0.0000 Press    =         1.2496 
---------------- Step    77800 ----- CPU =     12.6578 (sec) ----------------
TotEng   =     -1322.3000 KinEng   =       205.0358 Temp     =       292.7032 
PotEng   =     -1527.3358 E_bond   =        91.0786 E_angle  =        66.1093 
E_dihed  =        16.7717 E_impro  =         2.1979 E_vdwl   =      -912.3011 
E_coul   =      -791.1923 E_long   =         0.0000 Press    =         1.9913 
---------------- Step    77850 ----- CPU =     12.6657 (sec) ----------------
TotEng   =     -1330.3131 KinEng   =       201.7756 Temp     =       288.0490 
PotEng   =     -1532.0886 E_bond   =        82.4021 E_angle  =        62.9331 
E_dihed  =        16.4620 E_impro  =         1.6770 E_vdwl   =      -902.1895 
E_coul   =      -793.3732 E_long   =         0.0000 Press    =         3.6658 
---------------- Step    77900 ----- CPU =     12.6737 (sec) ----------------
TotEng   =     -1333.0539 KinEng   =       195.4805 Temp     =       279.0623 
PotEng   =     -1528.5343 E_bond   =        90.2126 E_angle  =        66.2400 
E_dihed  =        16.8142 E_impro  =         2.1089 E_vdwl   =      -915.9996 
E_coul   =      -787.9105 E_long   =         0.0000 Press    =         2.2022 
---------------- Step    77950 ----- CPU =     12.6817 (sec) ----------------
TotEng   =     -1335.7271 KinEng   =       204.7249 Temp     =       292.2594 
PotEng   =     -1540.4520 E_bond   =        88.2367 E_angle  =        64.7575 
E_dihed  =        11.3291 E_impro  =         2.2852 E_vdwl   =      -916.4640 
E_coul   =      -790.5964 E_long   =         0.0000 Press    =         1.9389 
---------------- Step    78000 ----- CPU =     12.6897 (sec) ----------------
TotEng   =     -1324.9810 KinEng   =       207.9674 Temp     =       296.8883 
PotEng   =     -1532.9484 E_bond   =        87.5382 E_angle  =        67.7878 
E_dihed  =        21.4474 E_impro  =         2.1493 E_vdwl   =      -913.5001 
E_coul   =      -798.3710 E_long   =         0.0000 Press    =         2.4737 
---------------- Step    78050 ----- CPU =     12.6987 (sec) ----------------
TotEng   =     -1333.5971 KinEng   =       203.2766 Temp     =       290.1918 
PotEng   =     -1536.8737 E_bond   =        90.5734 E_angle  =        64.9626 
E_dihed  =        16.2477 E_impro  =         2.5248 E_vdwl   =      -914.6737 
E_coul   =      -796.5086 E_long   =         0.0000 Press    =         2.8976 
---------------- Step    78100 ----- CPU =     12.7067 (sec) ----------------
TotEng   =     -1348.9062 KinEng   =       190.6601 Temp     =       272.1809 
PotEng   =     -1539.5663 E_bond   =        82.7397 E_angle  =        65.9764 
E_dihed  =        17.6296 E_impro  =         2.9282 E_vdwl   =      -918.6786 
E_coul   =      -790.1616 E_long   =         0.0000 Press    =         2.6322 
---------------- Step    78150 ----- CPU =     12.7147 (sec) ----------------
TotEng   =     -1353.6198 KinEng   =       201.4761 Temp     =       287.6216 
PotEng   =     -1555.0959 E_bond   =        84.7530 E_angle  =        63.1679 
E_dihed  =        15.4573 E_impro  =         2.5331 E_vdwl   =      -939.1262 
E_coul   =      -781.8809 E_long   =         0.0000 Press    =        -0.0279 
---------------- Step    78200 ----- CPU =     12.7247 (sec) ----------------
TotEng   =     -1319.5132 KinEng   =       211.4908 Temp     =       301.9182 
PotEng   =     -1531.0040 E_bond   =        93.1322 E_angle  =        64.2324 
E_dihed  =        13.9552 E_impro  =         2.5798 E_vdwl   =      -929.4441 
E_coul   =      -775.4594 E_long   =         0.0000 Press    =        -1.4059 
---------------- Step    78250 ----- CPU =     12.7327 (sec) ----------------
TotEng   =     -1303.7238 KinEng   =       222.1672 Temp     =       317.1596 
PotEng   =     -1525.8910 E_bond   =        94.9920 E_angle  =        68.3599 
E_dihed  =        12.0742 E_impro  =         4.2021 E_vdwl   =      -921.3204 
E_coul   =      -784.1987 E_long   =         0.0000 Press    =         0.8982 
---------------- Step    78300 ----- CPU =     12.7407 (sec) ----------------
TotEng   =     -1315.6620 KinEng   =       215.3812 Temp     =       307.4721 
PotEng   =     -1531.0432 E_bond   =        90.6331 E_angle  =        65.9902 
E_dihed  =        12.5711 E_impro  =         4.2718 E_vdwl   =      -919.6718 
E_coul   =      -784.8375 E_long   =         0.0000 Press    =         0.0328 
---------------- Step    78350 ----- CPU =     12.7497 (sec) ----------------
TotEng   =     -1317.9620 KinEng   =       207.2946 Temp     =       295.9279 
PotEng   =     -1525.2566 E_bond   =        89.5508 E_angle  =        65.0660 
E_dihed  =        10.8263 E_impro  =         4.2259 E_vdwl   =      -905.8297 
E_coul   =      -789.0960 E_long   =         0.0000 Press    =         1.9800 
---------------- Step    78400 ----- CPU =     12.7577 (sec) ----------------
TotEng   =     -1326.1632 KinEng   =       193.9950 Temp     =       276.9418 
PotEng   =     -1520.1583 E_bond   =        90.3831 E_angle  =        66.6067 
E_dihed  =        11.7392 E_impro  =         3.5893 E_vdwl   =      -910.9817 
E_coul   =      -781.4948 E_long   =         0.0000 Press    =         0.3558 
---------------- Step    78450 ----- CPU =     12.7667 (sec) ----------------
TotEng   =     -1327.9964 KinEng   =       203.5379 Temp     =       290.5649 
PotEng   =     -1531.5343 E_bond   =        91.4396 E_angle  =        69.7341 
E_dihed  =        17.6419 E_impro  =         2.4272 E_vdwl   =      -923.0173 
E_coul   =      -789.7598 E_long   =         0.0000 Press    =         0.2709 
---------------- Step    78500 ----- CPU =     12.7747 (sec) ----------------
TotEng   =     -1332.3677 KinEng   =       194.1783 Temp     =       277.2034 
PotEng   =     -1526.5460 E_bond   =        96.2990 E_angle  =        73.2066 
E_dihed  =        15.8445 E_impro  =         2.4690 E_vdwl   =      -923.1300 
E_coul   =      -791.2351 E_long   =         0.0000 Press    =        -1.2870 
---------------- Step    78550 ----- CPU =     12.7837 (sec) ----------------
TotEng   =     -1333.7379 KinEng   =       200.2500 Temp     =       285.8712 
PotEng   =     -1533.9879 E_bond   =        83.7236 E_angle  =        76.1482 
E_dihed  =        14.0880 E_impro  =         2.5359 E_vdwl   =      -916.7890 
E_coul   =      -793.6946 E_long   =         0.0000 Press    =        -1.9612 
---------------- Step    78600 ----- CPU =     12.7917 (sec) ----------------
TotEng   =     -1311.5106 KinEng   =       220.1990 Temp     =       314.3497 
PotEng   =     -1531.7096 E_bond   =        88.9602 E_angle  =        71.0912 
E_dihed  =        14.6619 E_impro  =         1.9415 E_vdwl   =      -914.1075 
E_coul   =      -794.2570 E_long   =         0.0000 Press    =        -1.7715 
---------------- Step    78650 ----- CPU =     12.7997 (sec) ----------------
TotEng   =     -1330.3414 KinEng   =       203.1235 Temp     =       289.9733 
PotEng   =     -1533.4649 E_bond   =        95.7588 E_angle  =        68.1560 
E_dihed  =        16.1091 E_impro  =         1.6945 E_vdwl   =      -917.7659 
E_coul   =      -797.4174 E_long   =         0.0000 Press    =        -1.4590 
---------------- Step    78700 ----- CPU =     12.8077 (sec) ----------------
TotEng   =     -1327.2396 KinEng   =       198.3494 Temp     =       283.1580 
PotEng   =     -1525.5890 E_bond   =       102.7528 E_angle  =        63.9423 
E_dihed  =        16.5635 E_impro  =         1.5380 E_vdwl   =      -914.8639 
E_coul   =      -795.5217 E_long   =         0.0000 Press    =        -2.5943 
---------------- Step    78750 ----- CPU =     12.8167 (sec) ----------------
TotEng   =     -1315.8785 KinEng   =       206.8394 Temp     =       295.2781 
PotEng   =     -1522.7180 E_bond   =       102.1159 E_angle  =        70.3298 
E_dihed  =        11.8680 E_impro  =         1.5075 E_vdwl   =      -913.1222 
E_coul   =      -795.4170 E_long   =         0.0000 Press    =        -0.0024 
---------------- Step    78800 ----- CPU =     12.8237 (sec) ----------------
TotEng   =     -1295.7981 KinEng   =       226.5907 Temp     =       323.4744 
PotEng   =     -1522.3888 E_bond   =        92.6055 E_angle  =        68.7145 
E_dihed  =         8.8614 E_impro  =         1.5742 E_vdwl   =      -892.1084 
E_coul   =      -802.0359 E_long   =         0.0000 Press    =         3.4429 
---------------- Step    78850 ----- CPU =     12.8327 (sec) ----------------
TotEng   =     -1307.9216 KinEng   =       208.9980 Temp     =       298.3596 
PotEng   =     -1516.9197 E_bond   =        95.8767 E_angle  =        66.0799 
E_dihed  =        12.3914 E_impro  =         1.3526 E_vdwl   =      -893.5760 
E_coul   =      -799.0442 E_long   =         0.0000 Press    =         3.1059 
---------------- Step    78900 ----- CPU =     12.8397 (sec) ----------------
TotEng   =     -1313.8233 KinEng   =       207.4548 Temp     =       296.1565 
PotEng   =     -1521.2781 E_bond   =       100.8952 E_angle  =        67.4601 
E_dihed  =        16.7879 E_impro  =         1.3655 E_vdwl   =      -915.3146 
E_coul   =      -792.4721 E_long   =         0.0000 Press    =         0.7787 
---------------- Step    78950 ----- CPU =     12.8497 (sec) ----------------
TotEng   =     -1322.7772 KinEng   =       216.9702 Temp     =       309.7405 
PotEng   =     -1539.7474 E_bond   =        94.9841 E_angle  =        70.6646 
E_dihed  =        14.7087 E_impro  =         1.2736 E_vdwl   =      -924.2316 
E_coul   =      -797.1469 E_long   =         0.0000 Press    =        -0.2399 
---------------- Step    79000 ----- CPU =     12.8567 (sec) ----------------
TotEng   =     -1321.9339 KinEng   =       202.8506 Temp     =       289.5838 
PotEng   =     -1524.7845 E_bond   =       106.0532 E_angle  =        68.9203 
E_dihed  =        17.1954 E_impro  =         1.4265 E_vdwl   =      -921.3526 
E_coul   =      -797.0274 E_long   =         0.0000 Press    =        -0.0664 
---------------- Step    79050 ----- CPU =     12.8657 (sec) ----------------
TotEng   =     -1291.7242 KinEng   =       219.2367 Temp     =       312.9761 
PotEng   =     -1510.9609 E_bond   =       103.6346 E_angle  =        72.1747 
E_dihed  =        17.0397 E_impro  =         1.5264 E_vdwl   =      -903.4802 
E_coul   =      -801.8561 E_long   =         0.0000 Press    =         3.4565 
---------------- Step    79100 ----- CPU =     12.8737 (sec) ----------------
TotEng   =     -1312.7559 KinEng   =       219.3250 Temp     =       313.1021 
PotEng   =     -1532.0809 E_bond   =        92.4437 E_angle  =        67.1800 
E_dihed  =        14.1795 E_impro  =         2.7220 E_vdwl   =      -906.1427 
E_coul   =      -802.4634 E_long   =         0.0000 Press    =         2.6615 
---------------- Step    79150 ----- CPU =     12.8817 (sec) ----------------
TotEng   =     -1329.4664 KinEng   =       206.1288 Temp     =       294.2636 
PotEng   =     -1535.5952 E_bond   =        94.0117 E_angle  =        63.3640 
E_dihed  =        15.9392 E_impro  =         1.3430 E_vdwl   =      -923.2257 
E_coul   =      -787.0273 E_long   =         0.0000 Press    =         0.0053 
---------------- Step    79200 ----- CPU =     12.8897 (sec) ----------------
TotEng   =     -1323.5206 KinEng   =       198.6551 Temp     =       283.5943 
PotEng   =     -1522.1757 E_bond   =       101.4455 E_angle  =        67.1714 
E_dihed  =        11.8395 E_impro  =         1.3925 E_vdwl   =      -919.6413 
E_coul   =      -784.3832 E_long   =         0.0000 Press    =        -1.0536 
---------------- Step    79250 ----- CPU =     12.8987 (sec) ----------------
TotEng   =     -1315.3450 KinEng   =       204.3202 Temp     =       291.6817 
PotEng   =     -1519.6652 E_bond   =        93.4320 E_angle  =        62.7753 
E_dihed  =        19.7647 E_impro  =         3.0702 E_vdwl   =      -920.4003 
E_coul   =      -778.3071 E_long   =         0.0000 Press    =        -0.6516 
---------------- Step    79300 ----- CPU =     12.9077 (sec) ----------------
TotEng   =     -1297.1988 KinEng   =       228.3409 Temp     =       325.9729 
PotEng   =     -1525.5397 E_bond   =        93.0890 E_angle  =        62.3142 
E_dihed  =        18.7295 E_impro  =         3.2644 E_vdwl   =      -920.0599 
E_coul   =      -782.8769 E_long   =         0.0000 Press    =        -0.6367 
---------------- Step    79350 ----- CPU =     12.9157 (sec) ----------------
TotEng   =     -1301.2233 KinEng   =       223.0682 Temp     =       318.4457 
PotEng   =     -1524.2915 E_bond   =        96.7116 E_angle  =        61.8590 
E_dihed  =        18.7146 E_impro  =         3.8559 E_vdwl   =      -921.6565 
E_coul   =      -783.7761 E_long   =         0.0000 Press    =        -0.3357 
---------------- Step    79400 ----- CPU =     12.9247 (sec) ----------------
TotEng   =     -1328.0032 KinEng   =       201.3217 Temp     =       287.4011 
PotEng   =     -1529.3249 E_bond   =       101.4209 E_angle  =        59.7405 
E_dihed  =        18.1004 E_impro  =         3.1059 E_vdwl   =      -923.4016 
E_coul   =      -788.2909 E_long   =         0.0000 Press    =        -1.0733 
---------------- Step    79450 ----- CPU =     12.9317 (sec) ----------------
TotEng   =     -1306.7064 KinEng   =       212.5800 Temp     =       303.4731 
PotEng   =     -1519.2864 E_bond   =       105.6286 E_angle  =        57.9851 
E_dihed  =        21.4027 E_impro  =         2.5304 E_vdwl   =      -926.7048 
E_coul   =      -780.1285 E_long   =         0.0000 Press    =        -1.4773 
---------------- Step    79500 ----- CPU =     12.9397 (sec) ----------------
TotEng   =     -1321.5450 KinEng   =       200.9460 Temp     =       286.8647 
PotEng   =     -1522.4909 E_bond   =       105.7304 E_angle  =        63.1726 
E_dihed  =        19.4600 E_impro  =         2.5474 E_vdwl   =      -922.2594 
E_coul   =      -791.1421 E_long   =         0.0000 Press    =        -3.7463 
---------------- Step    79550 ----- CPU =     12.9487 (sec) ----------------
TotEng   =     -1325.3887 KinEng   =       203.7034 Temp     =       290.8012 
PotEng   =     -1529.0921 E_bond   =        99.0082 E_angle  =        66.8642 
E_dihed  =        18.2622 E_impro  =         2.9798 E_vdwl   =      -934.3366 
E_coul   =      -781.8699 E_long   =         0.0000 Press    =        -3.3088 
---------------- Step    79600 ----- CPU =     12.9567 (sec) ----------------
TotEng   =     -1303.7851 KinEng   =       218.3324 Temp     =       311.6851 
PotEng   =     -1522.1175 E_bond   =       106.8906 E_angle  =        61.7802 
E_dihed  =        21.8686 E_impro  =         3.1523 E_vdwl   =      -915.0897 
E_coul   =      -800.7195 E_long   =         0.0000 Press    =        -0.5048 
---------------- Step    79650 ----- CPU =     12.9643 (sec) ----------------
TotEng   =     -1304.7281 KinEng   =       226.7800 Temp     =       323.7446 
PotEng   =     -1531.5081 E_bond   =        97.1765 E_angle  =        62.7677 
E_dihed  =        17.3656 E_impro  =         1.8788 E_vdwl   =      -910.0106 
E_coul   =      -800.6860 E_long   =         0.0000 Press    =         2.0847 
---------------- Step    79700 ----- CPU =     12.9723 (sec) ----------------
TotEng   =     -1308.7609 KinEng   =       216.1428 Temp     =       308.5593 
PotEng   =     -1524.9037 E_bond   =        96.7578 E_angle  =        65.6341 
E_dihed  =        23.2297 E_impro  =         2.3406 E_vdwl   =      -925.8758 
E_coul   =      -786.9901 E_long   =         0.0000 Press    =        -1.0475 
---------------- Step    79750 ----- CPU =     12.9814 (sec) ----------------
TotEng   =     -1299.7509 KinEng   =       215.3205 Temp     =       307.3854 
PotEng   =     -1515.0714 E_bond   =       101.4529 E_angle  =        65.1485 
E_dihed  =        20.3904 E_impro  =         2.8110 E_vdwl   =      -916.5270 
E_coul   =      -788.3472 E_long   =         0.0000 Press    =         1.4896 
---------------- Step    79800 ----- CPU =     12.9894 (sec) ----------------
TotEng   =     -1310.9718 KinEng   =       210.8201 Temp     =       300.9608 
PotEng   =     -1521.7920 E_bond   =        90.2574 E_angle  =        65.4444 
E_dihed  =        16.6269 E_impro  =         2.6913 E_vdwl   =      -913.1899 
E_coul   =      -783.6222 E_long   =         0.0000 Press    =         1.7466 
---------------- Step    79850 ----- CPU =     12.9974 (sec) ----------------
TotEng   =     -1304.6550 KinEng   =       209.4738 Temp     =       299.0388 
PotEng   =     -1514.1288 E_bond   =        94.7148 E_angle  =        69.4416 
E_dihed  =        13.5822 E_impro  =         2.6855 E_vdwl   =      -925.7292 
E_coul   =      -768.8237 E_long   =         0.0000 Press    =        -0.8705 
---------------- Step    79900 ----- CPU =     13.0054 (sec) ----------------
TotEng   =     -1308.1603 KinEng   =       210.2389 Temp     =       300.1310 
PotEng   =     -1518.3992 E_bond   =        88.2940 E_angle  =        70.6128 
E_dihed  =        13.5222 E_impro  =         3.7988 E_vdwl   =      -921.4306 
E_coul   =      -773.1964 E_long   =         0.0000 Press    =        -0.0494 
---------------- Step    79950 ----- CPU =     13.0134 (sec) ----------------
TotEng   =     -1314.1237 KinEng   =       210.6016 Temp     =       300.6489 
PotEng   =     -1524.7254 E_bond   =        76.1107 E_angle  =        67.6183 
E_dihed  =        14.2299 E_impro  =         4.0982 E_vdwl   =      -905.9829 
E_coul   =      -780.7996 E_long   =         0.0000 Press    =         2.3489 
---------------- Step    80000 ----- CPU =     13.0224 (sec) ----------------
TotEng   =     -1303.8854 KinEng   =       227.4225 Temp     =       324.6619 
PotEng   =     -1531.3079 E_bond   =        75.6016 E_angle  =        68.6726 
E_dihed  =        17.1597 E_impro  =         4.3524 E_vdwl   =      -915.0845 
E_coul   =      -782.0097 E_long   =         0.0000 Press    =         1.5271 
Loop time of 13.0224 on 1 procs for 80000 steps with 236 atoms

Performance: 1592.339 ns/day, 0.015 hours/ns, 6143.284 timesteps/s
96.2% CPU use with 1 MPI tasks x 1 OpenMP threads

MPI task timing breakdown:
Section |  min time  |  avg time  |  max time  |%varavg| %total
---------------------------------------------------------------
Pair    | 9.1712     | 9.1712     | 9.1712     |   0.0 | 70.43
Bond    | 1.4267     | 1.4267     | 1.4267     |   0.0 | 10.96
Neigh   | 0.36945    | 0.36945    | 0.36945    |   0.0 |  2.84
Comm    | 0.10803    | 0.10803    | 0.10803    |   0.0 |  0.83
Output  | 1.0341     | 1.0341     | 1.0341     |   0.0 |  7.94
Modify  | 0.80682    | 0.80682    | 0.80682    |   0.0 |  6.20
Other   |            | 0.106      |            |       |  0.81

Nlocal:        236.000 ave         236 max         236 min
Histogram: 1 0 0 0 0 0 0 0 0 0
Nghost:        320.000 ave         320 max         320 min
Histogram: 1 0 0 0 0 0 0 0 0 0
Neighs:        7613.00 ave        7613 max        7613 min
Histogram: 1 0 0 0 0 0 0 0 0 0

Total # of neighbors = 7613
Ave neighs/atom = 32.258475
Ave special neighs/atom = 8.4576271
Neighbor list builds = 993
Dangerous builds = 0

Total wall time: 0:00:13
