comment

161 atoms
169 bonds
158 angles
18 dihedrals
9 impropers

16 atom types
16 bond types
10 angle types
1 dihedral types
2 improper types

-40.5 40.5 xlo xhi
-40.5 40.5 ylo yhi
-190.0 190.0 zlo zhi

Masses

1 72.0
2 72.0
3 72.0
4 72.0
5 45.0
6 72.0
7 72.0
8 72.0
9 72.0
10 45.0
11 45.0
12 72.0
13 72.0
14 72.0
15 45.0
16 72.0

PairIJ Coeffs

1 1 1.19503 4.699999999999999
1 2 1.3384336 4.699999999999999
1 3 0.478012 4.699999999999999
1 4 1.19503 4.699999999999999
1 5 0.7409186 4.699999999999999
1 6 0.836521 4.699999999999999
1 7 0.5497137999999999 4.699999999999999
1 8 1.19503 4.699999999999999
1 9 1.3384336 4.699999999999999
1 10 0.6453162 4.699999999999999
1 11 1.19503 4.699999999999999
1 12 1.3384336 4.699999999999999
1 13 0.956024 4.699999999999999
1 14 1.19503 4.699999999999999
1 15 0.956024 4.699999999999999
1 16 0.7409186 4.699999999999999
2 2 1.3384336 4.699999999999999
2 3 0.478012 4.699999999999999
2 4 1.19503 4.699999999999999
2 5 0.7409186 4.699999999999999
2 6 0.836521 4.699999999999999
2 7 0.6453162 4.699999999999999
2 8 1.3384336 4.699999999999999
2 9 1.3384336 4.699999999999999
2 10 0.6453162 4.699999999999999
2 11 1.3384336 4.699999999999999
2 12 1.3384336 4.699999999999999
2 13 1.19503 4.699999999999999
2 14 1.19503 4.699999999999999
2 15 1.19503 4.699999999999999
2 16 0.7409186 4.699999999999999
3 3 0.836521 4.699999999999999
3 4 0.6453162 4.699999999999999
3 5 0.7409186 4.699999999999999
3 6 0.6453162 4.699999999999999
3 7 0.836521 4.699999999999999
3 8 0.6453162 4.699999999999999
3 9 0.478012 4.699999999999999
3 10 0.7409186 4.699999999999999
3 11 0.6453162 4.699999999999999
3 12 0.478012 4.699999999999999
3 13 0.6453162 4.699999999999999
3 14 0.6453162 4.699999999999999
3 15 0.6453162 4.699999999999999
3 16 0.7409186 4.699999999999999
4 4 1.075527 4.699999999999999
4 5 0.836521 4.699999999999999
4 6 0.836521 4.699999999999999
4 7 0.6453162 4.699999999999999
4 8 1.075527 4.699999999999999
4 9 0.956024 4.699999999999999
4 10 0.7409186 4.699999999999999
4 11 1.075527 4.699999999999999
4 12 1.19503 4.699999999999999
4 13 1.075527 4.699999999999999
4 14 1.075527 4.699999999999999
4 15 1.075527 4.699999999999999
4 16 0.836521 4.699999999999999
5 5 0.62739075 4.3
5 6 0.836521 4.699999999999999
5 7 0.836521 4.699999999999999
5 8 0.836521 4.699999999999999
5 9 0.7409186 4.699999999999999
5 10 0.62739075 4.3
5 11 0.62739075 4.3
5 12 0.7409186 4.699999999999999
5 13 0.836521 4.699999999999999
5 14 0.836521 4.699999999999999
5 15 0.62739075 4.3
5 16 0.836521 4.699999999999999
6 6 0.836521 4.699999999999999
6 7 0.836521 4.699999999999999
6 8 0.956024 4.699999999999999
6 9 0.836521 4.699999999999999
6 10 0.836521 4.699999999999999
6 11 0.956024 4.699999999999999
6 12 0.836521 4.699999999999999
6 13 0.836521 4.699999999999999
6 14 0.836521 4.699999999999999
6 15 0.836521 4.699999999999999
6 16 0.836521 4.699999999999999
7 7 0.836521 4.699999999999999
7 8 0.836521 4.699999999999999
7 9 0.6453162 4.699999999999999
7 10 0.836521 4.699999999999999
7 11 0.836521 4.699999999999999
7 12 0.5497137999999999 4.699999999999999
7 13 0.6453162 4.699999999999999
7 14 0.6453162 4.699999999999999
7 15 0.6453162 4.699999999999999
7 16 0.836521 4.699999999999999
8 8 1.075527 4.699999999999999
8 9 1.075527 4.699999999999999
8 10 0.836521 4.699999999999999
8 11 1.075527 4.699999999999999
8 12 1.19503 4.699999999999999
8 13 1.075527 4.699999999999999
8 14 1.075527 4.699999999999999
8 15 1.075527 4.699999999999999
8 16 0.836521 4.699999999999999
9 9 1.19503 4.699999999999999
9 10 0.6453162 4.699999999999999
9 11 1.075527 4.699999999999999
9 12 1.3384336 4.699999999999999
9 13 0.956024 4.699999999999999
9 14 0.956024 4.699999999999999
9 15 0.956024 4.699999999999999
9 16 0.7409186 4.699999999999999
10 10 0.62739075 4.3
10 11 0.62739075 4.3
10 12 0.6453162 4.699999999999999
10 13 0.7409186 4.699999999999999
10 14 0.7409186 4.699999999999999
10 15 0.5556889500000001 4.3
10 16 0.836521 4.699999999999999
11 11 0.80664525 4.3
11 12 1.19503 4.699999999999999
11 13 1.075527 4.699999999999999
11 14 1.075527 4.699999999999999
11 15 0.80664525 4.3
11 16 0.836521 4.699999999999999
12 12 1.19503 4.699999999999999
12 13 1.19503 4.699999999999999
12 14 0.956024 4.699999999999999
12 15 1.19503 4.699999999999999
12 16 0.7409186 4.699999999999999
13 13 0.956024 4.699999999999999
13 14 1.075527 4.699999999999999
13 15 0.956024 4.699999999999999
13 16 0.836521 4.699999999999999
14 14 0.956024 4.699999999999999
14 15 1.075527 4.699999999999999
14 16 0.836521 4.699999999999999
15 15 0.7170179999999999 4.3
15 16 0.836521 4.699999999999999
16 16 0.836521 4.699999999999999

Bond Coeffs

1 1.4937875 3.5
2 8.962725 3.3000000000000003
3 8.962725 3.1
4 5.97515 3.3000000000000003
5 5.97515 3.4000000000000004
6 5.97515 2.8000000000000003
7 5.97515 4.0
8 8.962725 3.0
9 5.97515 3.2
10 8.962725 3.2
11 5.97515 3.0
12 2.987575 4.0
13 11.9503 3.3000000000000003
14 11.9503 3.1
15 11.9503 2.7
16 11.9503 2.6

Angle Coeffs

1 2.39006 100
2 2.39006 127
3 83.6521 96
4 2.39006 130
5 2.987575 100
6 11.9503 98
7 5.97515 150
8 2.987575 180
9 5.97515 210
10 5.97515 90

Dihedral Coeffs

1 95.6024 1 -120 0

Improper Coeffs

1 5.97515 0
2 23.9006 0

Atoms

1 1 1 1.0000 14.0 27.827 17.082
2 1 2 0.0000 15.0 27.941 19.695
3 1 3 0.0000 15.0 29.736 19.585
4 1 4 0.0000 16.0 25.313 21.212
5 1 5 0.0000 16.0 23.207 19.747
6 1 5 0.0000 17.0 26.98 23.276
7 1 5 0.0000 17.0 26.988 20.859
8 1 4 0.0000 18.0 28.965 24.33
9 1 2 0.0000 18.0 31.75 22.473
10 1 6 0.0000 18.0 34.438 20.9
11 1 1 1.0000 19.0 26.83 25.258
12 1 4 0.0000 20.0 25.381 27.441
13 1 7 0.0000 20.0 23.317 27.127
14 1 1 1.0000 20.0 21.917 28.412
15 1 4 0.0000 21.0 27.749 29.425
16 1 8 0.0000 21.0 30.09 29.297
17 1 2 0.0000 21.0 32.277 28.795
18 1 2 0.0000 22.0 27.988 30.08
19 1 9 0.0000 22.0 29.85 27.84
20 1 6 0.0000 23.0 25.22 31.144
21 1 6 0.0000 23.0 22.636 30.135
22 1 7 0.0000 23.0 21.521 30.261
23 1 2 0.0000 23.0 20.307 31.438
24 1 2 0.0000 24.0 25.232 33.602
25 1 5 0.0000 24.0 25.0 32.813
26 1 5 0.0000 25.0 27.911 34.805
27 1 5 0.0000 25.0 30.614 33.295
28 1 4 0.0000 26.0 26.804 34.68
29 1 8 0.0000 26.0 29.52 33.133
30 1 4 0.0000 26.0 32.285 31.614
31 1 10 0.0000 27.0 23.341 34.641
32 1 10 0.0000 27.0 24.311 31.915
33 1 11 0.0000 28.0 21.687 35.958
34 1 2 0.0000 29.0 21.445 39.057
35 1 8 0.0000 29.0 24.603 41.203
36 1 2 0.0000 30.0 19.296 37.75
37 1 12 -1.0000 30.0 21.524 39.328
38 1 9 0.0000 32.0 15.629 32.741
39 1 2 0.0000 32.0 13.965 34.401
40 1 2 0.0000 33.0 14.401 29.429
41 1 13 0.0000 33.0 16.867 28.807
42 1 7 0.0000 34.0 11.684 29.769
43 1 1 1.0000 34.0 12.811 31.693
44 1 4 0.0000 35.0 8.524 29.423
45 1 2 0.0000 35.0 6.77 26.67
46 1 4 0.0000 35.0 4.181 25.996
47 1 7 0.0000 36.0 7.153 32.207
48 1 1 1.0000 37.0 9.466 33.735
49 1 4 0.0000 38.0 11.135 36.399
50 1 14 0.0000 38.0 11.243 38.85
51 1 3 0.0000 38.0 13.384 40.419
52 1 2 0.0000 40.0 14.611 39.937
53 1 8 0.0000 40.0 15.96 39.157
54 1 2 0.0000 40.0 18.083 39.243
55 1 10 0.0000 41.0 16.675 40.477
56 1 15 0.0000 41.0 18.884 42.133
57 1 5 0.0000 42.0 16.228 37.551
58 1 5 0.0000 43.0 14.707 34.655
59 1 2 0.0000 43.0 14.667 34.643
60 1 7 0.0000 44.0 13.073 32.46
61 1 1 1.0000 44.0 11.384 31.749
62 1 2 0.0000 45.0 13.983 28.852
63 1 12 -1.0000 45.0 16.995 29.935
64 1 2 0.0000 47.0 11.533 24.334
65 1 12 -1.0000 48.0 13.873 23.971
66 1 2 0.0000 48.0 16.35 26.015
67 1 8 0.0000 49.0 14.055 20.934
68 1 13 0.0000 49.0 16.843 20.046
69 1 3 0.0000 49.0 18.024 21.623
70 1 13 0.0000 49.0 19.538 20.215
71 1 16 0.0000 50.0 12.557 19.801
72 1 13 0.0000 51.0 12.636 22.533
73 1 12 -1.0000 51.0 10.467 24.517
74 1 4 0.0000 51.0 10.733 26.891
75 1 10 0.0000 52.0 12.44 24.971
76 1 10 0.0000 52.0 11.82 23.317
77 1 11 0.0000 52.0 12.451 20.901
Bonds

1 1 1 2
2 1 2 4
3 1 4 8
4 1 8 9
5 1 9 12
6 1 12 15
7 1 15 17
8 1 17 18
9 1 18 20
10 1 20 21
11 1 21 23
12 1 23 24
13 1 24 28
14 1 28 30
15 1 30 34
16 1 34 36
17 1 36 38
18 1 38 39
19 1 52 54
20 1 54 59
21 1 59 62
22 1 62 64
23 1 64 66
24 1 84 86
25 1 86 89
26 1 101 103
27 1 103 106
28 1 106 108
29 1 108 110
30 1 110 114
31 1 114 115
32 1 115 116
33 1 116 118
34 1 118 121
35 1 121 124
36 1 124 127
37 1 127 129
38 2 2 3
39 3 4 5
40 4 9 10
41 5 10 11
42 4 12 13
43 6 13 14
44 7 18 19
45 8 21 22
46 3 24 25
47 9 30 31
48 10 36 37
49 9 39 40
50 4 41 42
51 6 42 43
52 9 44 45
53 4 46 47
54 6 47 48
55 11 54 55
56 4 59 60
57 6 60 61
58 7 62 63
59 7 64 65
60 2 68 69
61 12 70 71
62 7 72 73
63 9 74 75
64 2 78 79
65 7 80 81
66 9 82 83
67 8 84 85
68 4 86 87
69 6 87 88
70 4 89 90
71 6 90 91
72 9 92 93
73 8 98 99
74 4 103 104
75 6 104 105
76 12 106 107
77 3 110 111
78 4 118 119
79 6 119 120
80 4 121 122
81 6 122 123
82 4 124 125
83 6 125 126
84 7 129 130
85 4 131 132
86 5 132 133
87 7 134 135
88 10 136 137
89 2 138 139
90 9 143 144
91 2 147 148
92 4 149 150
93 6 150 151
94 4 152 153
95 6 153 154
96 9 158 159
97 7 160 161
98 13 39 41
99 14 41 44
100 14 44 46
101 14 46 49
102 14 49 50
103 13 50 52
104 13 66 68
105 14 68 70
106 14 70 72
107 14 72 74
108 14 74 78
109 14 78 80
110 14 80 82
111 13 82 84
112 13 89 92
113 14 92 96
114 14 96 98
115 14 98 100
116 13 100 101
117 13 129 131
118 14 131 134
119 14 134 136
120 14 136 138
121 14 138 140
122 14 140 142
123 14 142 143
124 14 143 147
125 14 147 149
126 14 149 152
127 14 152 155
128 14 155 156
129 14 156 158
130 14 158 160
131 15 5 6
132 15 5 7
133 15 6 7
134 16 15 16
135 15 25 26
136 15 25 27
137 15 26 27
138 16 28 29
139 15 31 32
140 15 31 33
141 15 32 33
142 16 34 35
143 14 50 51
144 16 52 53
145 15 55 56
146 15 55 57
147 15 56 57
148 15 56 58
149 15 57 58
150 16 66 67
151 15 75 76
152 15 75 77
153 15 76 77
154 15 93 94
155 15 93 95
156 15 94 95
157 14 96 97
158 16 101 102
159 14 108 109
160 15 111 112
161 15 111 113
162 15 112 113
163 14 116 117
164 16 127 128
165 14 140 141
166 15 144 145
167 15 144 146
168 15 145 146
169 16 156 157

Angles

1 1 1 2 4
2 1 2 4 8
3 1 4 8 9
4 1 8 9 12
5 1 9 12 15
6 1 12 15 17
7 1 15 17 18
8 1 17 18 20
9 1 18 20 21
10 1 20 21 23
11 2 21 23 24
12 1 23 24 28
13 1 24 28 30
14 1 28 30 34
15 1 30 34 36
16 2 34 36 38
17 2 36 38 39
18 2 38 39 41
19 2 39 41 44
20 3 41 44 46
21 3 44 46 49
22 3 46 49 50
23 2 49 50 52
24 2 50 52 54
25 2 52 54 59
26 2 54 59 62
27 2 59 62 64
28 2 62 64 66
29 2 64 66 68
30 4 66 68 70
31 3 68 70 72
32 3 70 72 74
33 3 72 74 78
34 3 74 78 80
35 3 78 80 82
36 5 80 82 84
37 1 82 84 86
38 1 84 86 89
39 1 86 89 92
40 2 89 92 96
41 6 92 96 98
42 6 96 98 100
43 4 98 100 101
44 1 100 101 103
45 1 101 103 106
46 1 103 106 108
47 1 106 108 110
48 2 108 110 114
49 2 110 114 115
50 2 114 115 116
51 2 115 116 118
52 2 116 118 121
53 2 118 121 124
54 2 121 124 127
55 2 124 127 129
56 2 127 129 131
57 4 129 131 134
58 3 131 134 136
59 3 134 136 138
60 3 136 138 140
61 3 138 140 142
62 3 140 142 143
63 3 142 143 147
64 3 143 147 149
65 3 147 149 152
66 3 149 152 155
67 3 152 155 156
68 3 155 156 158
69 3 156 158 160
70 5 1 2 3
71 5 2 4 5
72 5 8 9 10
73 5 9 12 13
74 5 12 15 16
75 5 17 18 19
76 5 20 21 22
77 5 23 24 25
78 5 24 28 29
79 5 28 30 31
80 5 30 34 35
81 5 34 36 37
82 5 38 39 40
83 5 39 41 42
84 5 41 44 45
85 5 44 46 47
86 5 49 50 51
87 5 50 52 53
88 5 52 54 55
89 5 54 59 60
90 5 59 62 63
91 5 62 64 65
92 5 64 66 67
93 5 66 68 69
94 5 68 70 71
95 5 70 72 73
96 5 72 74 75
97 5 74 78 79
98 5 78 80 81
99 5 80 82 83
100 5 82 84 85
101 5 84 86 87
102 5 86 89 90
103 5 89 92 93
104 5 92 96 97
105 5 96 98 99
106 5 100 101 102
107 5 101 103 104
108 5 103 106 107
109 5 106 108 109
110 5 108 110 111
111 5 115 116 117
112 5 116 118 119
113 5 118 121 122
114 5 121 124 125
115 5 124 127 128
116 5 127 129 130
117 5 129 131 132
118 5 131 134 135
119 5 134 136 137
120 5 136 138 139
121 5 138 140 141
122 5 142 143 144
123 5 143 147 148
124 5 147 149 150
125 5 149 152 153
126 5 155 156 157
127 5 156 158 159
128 5 158 160 161
129 7 4 5 6
130 7 4 5 7
131 8 9 10 11
132 8 12 13 14
133 7 24 25 26
134 7 24 25 27
135 7 30 31 32
136 7 30 31 33
137 8 41 42 43
138 8 46 47 48
139 9 54 55 56
140 10 54 55 57
141 8 59 60 61
142 7 74 75 76
143 7 74 75 77
144 8 86 87 88
145 8 89 90 91
146 7 92 93 94
147 7 92 93 95
148 8 103 104 105
149 7 110 111 112
150 7 110 111 113
151 8 118 119 120
152 8 121 122 123
153 8 124 125 126
154 8 131 132 133
155 7 143 144 145
156 7 143 144 146
157 8 149 150 151
158 8 152 153 154

Dihedrals

1 1 41 44 46 49
2 1 44 46 49 50
3 1 68 70 72 74
4 1 70 72 74 78
5 1 72 74 78 80
6 1 74 78 80 82
7 1 92 96 98 100
8 1 131 134 136 138
9 1 134 136 138 140
10 1 136 138 140 142
11 1 138 140 142 143
12 1 140 142 143 147
13 1 142 143 147 149
14 1 143 147 149 152
15 1 147 149 152 155
16 1 149 152 155 156
17 1 152 155 156 158
18 1 155 156 158 160

Impropers

1 1 4 6 7 5
2 1 24 26 27 25
3 1 30 32 33 31
4 1 54 56 57 55
5 2 55 56 58 57
6 1 74 76 77 75
7 1 92 94 95 93
8 1 110 112 113 111
9 1 143 145 146 144

