length - 15.0, depth- 15.0, width- 20.0, dia- 5.0, dia big- 1.0, dia small - 1.0

1104 atoms
2 atom types

-8 8 xlo xhi
-8 8 ylo yhi
-50.0 50.0 zlo zhi

Atoms

1 1 1 0 2.5 0.0 -10.0
2 1 1 0 2.5 0.0 -9.0
3 1 1 0 2.5 0.0 -8.0
4 1 1 0 2.5 0.0 -7.0
5 1 1 0 2.5 0.0 -6.0
6 1 1 0 2.5 0.0 -5.0
7 1 1 0 2.5 0.0 -4.0
8 1 1 0 2.5 0.0 -3.0
9 1 1 0 2.5 0.0 -2.0
10 1 1 0 2.5 0.0 -1.0
11 1 1 0 2.5 0.0 0.0
12 1 1 0 2.5 0.0 1.0
13 1 1 0 2.5 0.0 2.0
14 1 1 0 2.5 0.0 3.0
15 1 1 0 2.5 0.0 4.0
16 1 1 0 2.5 0.0 5.0
17 1 1 0 2.5 0.0 6.0
18 1 1 0 2.5 0.0 7.0
19 1 1 0 2.5 0.0 8.0
20 1 1 0 2.5 0.0 9.0
21 1 1 0 2.5 0.0 10.0
22 1 1 0 2.45 0.4974937185533102 -10.0
23 1 1 0 2.45 0.4974937185533102 -9.0
24 1 1 0 2.45 0.4974937185533102 -8.0
25 1 1 0 2.45 0.4974937185533102 -7.0
26 1 1 0 2.45 0.4974937185533102 -6.0
27 1 1 0 2.45 0.4974937185533102 -5.0
28 1 1 0 2.45 0.4974937185533102 -4.0
29 1 1 0 2.45 0.4974937185533102 -3.0
30 1 1 0 2.45 0.4974937185533102 -2.0
31 1 1 0 2.45 0.4974937185533102 -1.0
32 1 1 0 2.45 0.4974937185533102 0.0
33 1 1 0 2.45 0.4974937185533102 1.0
34 1 1 0 2.45 0.4974937185533102 2.0
35 1 1 0 2.45 0.4974937185533102 3.0
36 1 1 0 2.45 0.4974937185533102 4.0
37 1 1 0 2.45 0.4974937185533102 5.0
38 1 1 0 2.45 0.4974937185533102 6.0
39 1 1 0 2.45 0.4974937185533102 7.0
40 1 1 0 2.45 0.4974937185533102 8.0
41 1 1 0 2.45 0.4974937185533102 9.0
42 1 1 0 2.45 0.4974937185533102 10.0
43 1 1 0 2.302 0.9750876883644879 -10.0
44 1 1 0 2.302 0.9750876883644879 -9.0
45 1 1 0 2.302 0.9750876883644879 -8.0
46 1 1 0 2.302 0.9750876883644879 -7.0
47 1 1 0 2.302 0.9750876883644879 -6.0
48 1 1 0 2.302 0.9750876883644879 -5.0
49 1 1 0 2.302 0.9750876883644879 -4.0
50 1 1 0 2.302 0.9750876883644879 -3.0
51 1 1 0 2.302 0.9750876883644879 -2.0
52 1 1 0 2.302 0.9750876883644879 -1.0
53 1 1 0 2.302 0.9750876883644879 0.0
54 1 1 0 2.302 0.9750876883644879 1.0
55 1 1 0 2.302 0.9750876883644879 2.0
56 1 1 0 2.302 0.9750876883644879 3.0
57 1 1 0 2.302 0.9750876883644879 4.0
58 1 1 0 2.302 0.9750876883644879 5.0
59 1 1 0 2.302 0.9750876883644879 6.0
60 1 1 0 2.302 0.9750876883644879 7.0
61 1 1 0 2.302 0.9750876883644879 8.0
62 1 1 0 2.302 0.9750876883644879 9.0
63 1 1 0 2.302 0.9750876883644879 10.0
64 1 1 0 2.0619199999999998 1.4136781506410863 -10.0
65 1 1 0 2.0619199999999998 1.4136781506410863 -9.0
66 1 1 0 2.0619199999999998 1.4136781506410863 -8.0
67 1 1 0 2.0619199999999998 1.4136781506410863 -7.0
68 1 1 0 2.0619199999999998 1.4136781506410863 -6.0
69 1 1 0 2.0619199999999998 1.4136781506410863 -5.0
70 1 1 0 2.0619199999999998 1.4136781506410863 -4.0
71 1 1 0 2.0619199999999998 1.4136781506410863 -3.0
72 1 1 0 2.0619199999999998 1.4136781506410863 -2.0
73 1 1 0 2.0619199999999998 1.4136781506410863 -1.0
74 1 1 0 2.0619199999999998 1.4136781506410863 0.0
75 1 1 0 2.0619199999999998 1.4136781506410863 1.0
76 1 1 0 2.0619199999999998 1.4136781506410863 2.0
77 1 1 0 2.0619199999999998 1.4136781506410863 3.0
78 1 1 0 2.0619199999999998 1.4136781506410863 4.0
79 1 1 0 2.0619199999999998 1.4136781506410863 5.0
80 1 1 0 2.0619199999999998 1.4136781506410863 6.0
81 1 1 0 2.0619199999999998 1.4136781506410863 7.0
82 1 1 0 2.0619199999999998 1.4136781506410863 8.0
83 1 1 0 2.0619199999999998 1.4136781506410863 9.0
84 1 1 0 2.0619199999999998 1.4136781506410863 10.0
85 1 1 0 1.7393631999999992 1.795721486892041 -10.0
86 1 1 0 1.7393631999999992 1.795721486892041 -9.0
87 1 1 0 1.7393631999999992 1.795721486892041 -8.0
88 1 1 0 1.7393631999999992 1.795721486892041 -7.0
89 1 1 0 1.7393631999999992 1.795721486892041 -6.0
90 1 1 0 1.7393631999999992 1.795721486892041 -5.0
91 1 1 0 1.7393631999999992 1.795721486892041 -4.0
92 1 1 0 1.7393631999999992 1.795721486892041 -3.0
93 1 1 0 1.7393631999999992 1.795721486892041 -2.0
94 1 1 0 1.7393631999999992 1.795721486892041 -1.0
95 1 1 0 1.7393631999999992 1.795721486892041 0.0
96 1 1 0 1.7393631999999992 1.795721486892041 1.0
97 1 1 0 1.7393631999999992 1.795721486892041 2.0
98 1 1 0 1.7393631999999992 1.795721486892041 3.0
99 1 1 0 1.7393631999999992 1.795721486892041 4.0
100 1 1 0 1.7393631999999992 1.795721486892041 5.0
101 1 1 0 1.7393631999999992 1.795721486892041 6.0
102 1 1 0 1.7393631999999992 1.795721486892041 7.0
103 1 1 0 1.7393631999999992 1.795721486892041 8.0
104 1 1 0 1.7393631999999992 1.795721486892041 9.0
105 1 1 0 1.7393631999999992 1.795721486892041 10.0
106 1 1 0 1.3472318719999992 2.105935963667314 -10.0
107 1 1 0 1.3472318719999992 2.105935963667314 -9.0
108 1 1 0 1.3472318719999992 2.105935963667314 -8.0
109 1 1 0 1.3472318719999992 2.105935963667314 -7.0
110 1 1 0 1.3472318719999992 2.105935963667314 -6.0
111 1 1 0 1.3472318719999992 2.105935963667314 -5.0
112 1 1 0 1.3472318719999992 2.105935963667314 -4.0
113 1 1 0 1.3472318719999992 2.105935963667314 -3.0
114 1 1 0 1.3472318719999992 2.105935963667314 -2.0
115 1 1 0 1.3472318719999992 2.105935963667314 -1.0
116 1 1 0 1.3472318719999992 2.105935963667314 0.0
117 1 1 0 1.3472318719999992 2.105935963667314 1.0
118 1 1 0 1.3472318719999992 2.105935963667314 2.0
119 1 1 0 1.3472318719999992 2.105935963667314 3.0
120 1 1 0 1.3472318719999992 2.105935963667314 4.0
121 1 1 0 1.3472318719999992 2.105935963667314 5.0
122 1 1 0 1.3472318719999992 2.105935963667314 6.0
123 1 1 0 1.3472318719999992 2.105935963667314 7.0
124 1 1 0 1.3472318719999992 2.105935963667314 8.0
125 1 1 0 1.3472318719999992 2.105935963667314 9.0
126 1 1 0 1.3472318719999992 2.105935963667314 10.0
127 1 1 0 0.9012112691199989 2.3319130018958942 -10.0
128 1 1 0 0.9012112691199989 2.3319130018958942 -9.0
129 1 1 0 0.9012112691199989 2.3319130018958942 -8.0
130 1 1 0 0.9012112691199989 2.3319130018958942 -7.0
131 1 1 0 0.9012112691199989 2.3319130018958942 -6.0
132 1 1 0 0.9012112691199989 2.3319130018958942 -5.0
133 1 1 0 0.9012112691199989 2.3319130018958942 -4.0
134 1 1 0 0.9012112691199989 2.3319130018958942 -3.0
135 1 1 0 0.9012112691199989 2.3319130018958942 -2.0
136 1 1 0 0.9012112691199989 2.3319130018958942 -1.0
137 1 1 0 0.9012112691199989 2.3319130018958942 0.0
138 1 1 0 0.9012112691199989 2.3319130018958942 1.0
139 1 1 0 0.9012112691199989 2.3319130018958942 2.0
140 1 1 0 0.9012112691199989 2.3319130018958942 3.0
141 1 1 0 0.9012112691199989 2.3319130018958942 4.0
142 1 1 0 0.9012112691199989 2.3319130018958942 5.0
143 1 1 0 0.9012112691199989 2.3319130018958942 6.0
144 1 1 0 0.9012112691199989 2.3319130018958942 7.0
145 1 1 0 0.9012112691199989 2.3319130018958942 8.0
146 1 1 0 0.9012112691199989 2.3319130018958942 9.0
147 1 1 0 0.9012112691199989 2.3319130018958942 10.0
148 1 1 0 0.4191422154751985 2.4646135200486388 -10.0
149 1 1 0 0.4191422154751985 2.4646135200486388 -9.0
150 1 1 0 0.4191422154751985 2.4646135200486388 -8.0
151 1 1 0 0.4191422154751985 2.4646135200486388 -7.0
152 1 1 0 0.4191422154751985 2.4646135200486388 -6.0
153 1 1 0 0.4191422154751985 2.4646135200486388 -5.0
154 1 1 0 0.4191422154751985 2.4646135200486388 -4.0
155 1 1 0 0.4191422154751985 2.4646135200486388 -3.0
156 1 1 0 0.4191422154751985 2.4646135200486388 -2.0
157 1 1 0 0.4191422154751985 2.4646135200486388 -1.0
158 1 1 0 0.4191422154751985 2.4646135200486388 0.0
159 1 1 0 0.4191422154751985 2.4646135200486388 1.0
160 1 1 0 0.4191422154751985 2.4646135200486388 2.0
161 1 1 0 0.4191422154751985 2.4646135200486388 3.0
162 1 1 0 0.4191422154751985 2.4646135200486388 4.0
163 1 1 0 0.4191422154751985 2.4646135200486388 5.0
164 1 1 0 0.4191422154751985 2.4646135200486388 6.0
165 1 1 0 0.4191422154751985 2.4646135200486388 7.0
166 1 1 0 0.4191422154751985 2.4646135200486388 8.0
167 1 1 0 0.4191422154751985 2.4646135200486388 9.0
168 1 1 0 0.4191422154751985 2.4646135200486388 10.0
169 1 1 0 -0.0796925267886098 2.498729497399438 -10.0
170 1 1 0 -0.0796925267886098 2.498729497399438 -9.0
171 1 1 0 -0.0796925267886098 2.498729497399438 -8.0
172 1 1 0 -0.0796925267886098 2.498729497399438 -7.0
173 1 1 0 -0.0796925267886098 2.498729497399438 -6.0
174 1 1 0 -0.0796925267886098 2.498729497399438 -5.0
175 1 1 0 -0.0796925267886098 2.498729497399438 -4.0
176 1 1 0 -0.0796925267886098 2.498729497399438 -3.0
177 1 1 0 -0.0796925267886098 2.498729497399438 -2.0
178 1 1 0 -0.0796925267886098 2.498729497399438 -1.0
179 1 1 0 -0.0796925267886098 2.498729497399438 0.0
180 1 1 0 -0.0796925267886098 2.498729497399438 1.0
181 1 1 0 -0.0796925267886098 2.498729497399438 2.0
182 1 1 0 -0.0796925267886098 2.498729497399438 3.0
183 1 1 0 -0.0796925267886098 2.498729497399438 4.0
184 1 1 0 -0.0796925267886098 2.498729497399438 5.0
185 1 1 0 -0.0796925267886098 2.498729497399438 6.0
186 1 1 0 -0.0796925267886098 2.498729497399438 7.0
187 1 1 0 -0.0796925267886098 2.498729497399438 8.0
188 1 1 0 -0.0796925267886098 2.498729497399438 9.0
189 1 1 0 -0.0796925267886098 2.498729497399438 10.0
190 1 1 0 -0.5753395679808737 2.432896294854259 -10.0
191 1 1 0 -0.5753395679808737 2.432896294854259 -9.0
192 1 1 0 -0.5753395679808737 2.432896294854259 -8.0
193 1 1 0 -0.5753395679808737 2.432896294854259 -7.0
194 1 1 0 -0.5753395679808737 2.432896294854259 -6.0
195 1 1 0 -0.5753395679808737 2.432896294854259 -5.0
196 1 1 0 -0.5753395679808737 2.432896294854259 -4.0
197 1 1 0 -0.5753395679808737 2.432896294854259 -3.0
198 1 1 0 -0.5753395679808737 2.432896294854259 -2.0
199 1 1 0 -0.5753395679808737 2.432896294854259 -1.0
200 1 1 0 -0.5753395679808737 2.432896294854259 0.0
201 1 1 0 -0.5753395679808737 2.432896294854259 1.0
202 1 1 0 -0.5753395679808737 2.432896294854259 2.0
203 1 1 0 -0.5753395679808737 2.432896294854259 3.0
204 1 1 0 -0.5753395679808737 2.432896294854259 4.0
205 1 1 0 -0.5753395679808737 2.432896294854259 5.0
206 1 1 0 -0.5753395679808737 2.432896294854259 6.0
207 1 1 0 -0.5753395679808737 2.432896294854259 7.0
208 1 1 0 -0.5753395679808737 2.432896294854259 8.0
209 1 1 0 -0.5753395679808737 2.432896294854259 9.0
210 1 1 0 -0.5753395679808737 2.432896294854259 10.0
211 1 1 0 -1.0479730264539022 2.26974724051491 -10.0
212 1 1 0 -1.0479730264539022 2.26974724051491 -9.0
213 1 1 0 -1.0479730264539022 2.26974724051491 -8.0
214 1 1 0 -1.0479730264539022 2.26974724051491 -7.0
215 1 1 0 -1.0479730264539022 2.26974724051491 -6.0
216 1 1 0 -1.0479730264539022 2.26974724051491 -5.0
217 1 1 0 -1.0479730264539022 2.26974724051491 -4.0
218 1 1 0 -1.0479730264539022 2.26974724051491 -3.0
219 1 1 0 -1.0479730264539022 2.26974724051491 -2.0
220 1 1 0 -1.0479730264539022 2.26974724051491 -1.0
221 1 1 0 -1.0479730264539022 2.26974724051491 0.0
222 1 1 0 -1.0479730264539022 2.26974724051491 1.0
223 1 1 0 -1.0479730264539022 2.26974724051491 2.0
224 1 1 0 -1.0479730264539022 2.26974724051491 3.0
225 1 1 0 -1.0479730264539022 2.26974724051491 4.0
226 1 1 0 -1.0479730264539022 2.26974724051491 5.0
227 1 1 0 -1.0479730264539022 2.26974724051491 6.0
228 1 1 0 -1.0479730264539022 2.26974724051491 7.0
229 1 1 0 -1.0479730264539022 2.26974724051491 8.0
230 1 1 0 -1.0479730264539022 2.26974724051491 9.0
231 1 1 0 -1.0479730264539022 2.26974724051491 10.0
232 1 1 0 -1.4786875638687746 2.015808296554965 -10.0
233 1 1 0 -1.4786875638687746 2.015808296554965 -9.0
234 1 1 0 -1.4786875638687746 2.015808296554965 -8.0
235 1 1 0 -1.4786875638687746 2.015808296554965 -7.0
236 1 1 0 -1.4786875638687746 2.015808296554965 -6.0
237 1 1 0 -1.4786875638687746 2.015808296554965 -5.0
238 1 1 0 -1.4786875638687746 2.015808296554965 -4.0
239 1 1 0 -1.4786875638687746 2.015808296554965 -3.0
240 1 1 0 -1.4786875638687746 2.015808296554965 -2.0
241 1 1 0 -1.4786875638687746 2.015808296554965 -1.0
242 1 1 0 -1.4786875638687746 2.015808296554965 0.0
243 1 1 0 -1.4786875638687746 2.015808296554965 1.0
244 1 1 0 -1.4786875638687746 2.015808296554965 2.0
245 1 1 0 -1.4786875638687746 2.015808296554965 3.0
246 1 1 0 -1.4786875638687746 2.015808296554965 4.0
247 1 1 0 -1.4786875638687746 2.015808296554965 5.0
248 1 1 0 -1.4786875638687746 2.015808296554965 6.0
249 1 1 0 -1.4786875638687746 2.015808296554965 7.0
250 1 1 0 -1.4786875638687746 2.015808296554965 8.0
251 1 1 0 -1.4786875638687746 2.015808296554965 9.0
252 1 1 0 -1.4786875638687746 2.015808296554965 10.0
253 1 1 0 -1.8502545987288959 1.6812370207328209 -10.0
254 1 1 0 -1.8502545987288959 1.6812370207328209 -9.0
255 1 1 0 -1.8502545987288959 1.6812370207328209 -8.0
256 1 1 0 -1.8502545987288959 1.6812370207328209 -7.0
257 1 1 0 -1.8502545987288959 1.6812370207328209 -6.0
258 1 1 0 -1.8502545987288959 1.6812370207328209 -5.0
259 1 1 0 -1.8502545987288959 1.6812370207328209 -4.0
260 1 1 0 -1.8502545987288959 1.6812370207328209 -3.0
261 1 1 0 -1.8502545987288959 1.6812370207328209 -2.0
262 1 1 0 -1.8502545987288959 1.6812370207328209 -1.0
263 1 1 0 -1.8502545987288959 1.6812370207328209 0.0
264 1 1 0 -1.8502545987288959 1.6812370207328209 1.0
265 1 1 0 -1.8502545987288959 1.6812370207328209 2.0
266 1 1 0 -1.8502545987288959 1.6812370207328209 3.0
267 1 1 0 -1.8502545987288959 1.6812370207328209 4.0
268 1 1 0 -1.8502545987288959 1.6812370207328209 5.0
269 1 1 0 -1.8502545987288959 1.6812370207328209 6.0
270 1 1 0 -1.8502545987288959 1.6812370207328209 7.0
271 1 1 0 -1.8502545987288959 1.6812370207328209 8.0
272 1 1 0 -1.8502545987288959 1.6812370207328209 9.0
273 1 1 0 -1.8502545987288959 1.6812370207328209 10.0
274 1 1 0 -2.1478114496398617 1.2794162640813644 -10.0
275 1 1 0 -2.1478114496398617 1.2794162640813644 -9.0
276 1 1 0 -2.1478114496398617 1.2794162640813644 -8.0
277 1 1 0 -2.1478114496398617 1.2794162640813644 -7.0
278 1 1 0 -2.1478114496398617 1.2794162640813644 -6.0
279 1 1 0 -2.1478114496398617 1.2794162640813644 -5.0
280 1 1 0 -2.1478114496398617 1.2794162640813644 -4.0
281 1 1 0 -2.1478114496398617 1.2794162640813644 -3.0
282 1 1 0 -2.1478114496398617 1.2794162640813644 -2.0
283 1 1 0 -2.1478114496398617 1.2794162640813644 -1.0
284 1 1 0 -2.1478114496398617 1.2794162640813644 0.0
285 1 1 0 -2.1478114496398617 1.2794162640813644 1.0
286 1 1 0 -2.1478114496398617 1.2794162640813644 2.0
287 1 1 0 -2.1478114496398617 1.2794162640813644 3.0
288 1 1 0 -2.1478114496398617 1.2794162640813644 4.0
289 1 1 0 -2.1478114496398617 1.2794162640813644 5.0
290 1 1 0 -2.1478114496398617 1.2794162640813644 6.0
291 1 1 0 -2.1478114496398617 1.2794162640813644 7.0
292 1 1 0 -2.1478114496398617 1.2794162640813644 8.0
293 1 1 0 -2.1478114496398617 1.2794162640813644 9.0
294 1 1 0 -2.1478114496398617 1.2794162640813644 10.0
295 1 1 0 -2.359455842565233 0.8264188568666533 -10.0
296 1 1 0 -2.359455842565233 0.8264188568666533 -9.0
297 1 1 0 -2.359455842565233 0.8264188568666533 -8.0
298 1 1 0 -2.359455842565233 0.8264188568666533 -7.0
299 1 1 0 -2.359455842565233 0.8264188568666533 -6.0
300 1 1 0 -2.359455842565233 0.8264188568666533 -5.0
301 1 1 0 -2.359455842565233 0.8264188568666533 -4.0
302 1 1 0 -2.359455842565233 0.8264188568666533 -3.0
303 1 1 0 -2.359455842565233 0.8264188568666533 -2.0
304 1 1 0 -2.359455842565233 0.8264188568666533 -1.0
305 1 1 0 -2.359455842565233 0.8264188568666533 0.0
306 1 1 0 -2.359455842565233 0.8264188568666533 1.0
307 1 1 0 -2.359455842565233 0.8264188568666533 2.0
308 1 1 0 -2.359455842565233 0.8264188568666533 3.0
309 1 1 0 -2.359455842565233 0.8264188568666533 4.0
310 1 1 0 -2.359455842565233 0.8264188568666533 5.0
311 1 1 0 -2.359455842565233 0.8264188568666533 6.0
312 1 1 0 -2.359455842565233 0.8264188568666533 7.0
313 1 1 0 -2.359455842565233 0.8264188568666533 8.0
314 1 1 0 -2.359455842565233 0.8264188568666533 9.0
315 1 1 0 -2.359455842565233 0.8264188568666533 10.0
316 1 1 0 -2.476722001787995 0.3403646953772762 -10.0
317 1 1 0 -2.476722001787995 0.3403646953772762 -9.0
318 1 1 0 -2.476722001787995 0.3403646953772762 -8.0
319 1 1 0 -2.476722001787995 0.3403646953772762 -7.0
320 1 1 0 -2.476722001787995 0.3403646953772762 -6.0
321 1 1 0 -2.476722001787995 0.3403646953772762 -5.0
322 1 1 0 -2.476722001787995 0.3403646953772762 -4.0
323 1 1 0 -2.476722001787995 0.3403646953772762 -3.0
324 1 1 0 -2.476722001787995 0.3403646953772762 -2.0
325 1 1 0 -2.476722001787995 0.3403646953772762 -1.0
326 1 1 0 -2.476722001787995 0.3403646953772762 0.0
327 1 1 0 -2.476722001787995 0.3403646953772762 1.0
328 1 1 0 -2.476722001787995 0.3403646953772762 2.0
329 1 1 0 -2.476722001787995 0.3403646953772762 3.0
330 1 1 0 -2.476722001787995 0.3403646953772762 4.0
331 1 1 0 -2.476722001787995 0.3403646953772762 5.0
332 1 1 0 -2.476722001787995 0.3403646953772762 6.0
333 1 1 0 -2.476722001787995 0.3403646953772762 7.0
334 1 1 0 -2.476722001787995 0.3403646953772762 8.0
335 1 1 0 -2.476722001787995 0.3403646953772762 9.0
336 1 1 0 -2.476722001787995 0.3403646953772762 10.0
337 1 1 0 -2.4949192809392375 -0.15930405392719202 -10.0
338 1 1 0 -2.4949192809392375 -0.15930405392719202 -9.0
339 1 1 0 -2.4949192809392375 -0.15930405392719202 -8.0
340 1 1 0 -2.4949192809392375 -0.15930405392719202 -7.0
341 1 1 0 -2.4949192809392375 -0.15930405392719202 -6.0
342 1 1 0 -2.4949192809392375 -0.15930405392719202 -5.0
343 1 1 0 -2.4949192809392375 -0.15930405392719202 -4.0
344 1 1 0 -2.4949192809392375 -0.15930405392719202 -3.0
345 1 1 0 -2.4949192809392375 -0.15930405392719202 -2.0
346 1 1 0 -2.4949192809392375 -0.15930405392719202 -1.0
347 1 1 0 -2.4949192809392375 -0.15930405392719202 0.0
348 1 1 0 -2.4949192809392375 -0.15930405392719202 1.0
349 1 1 0 -2.4949192809392375 -0.15930405392719202 2.0
350 1 1 0 -2.4949192809392375 -0.15930405392719202 3.0
351 1 1 0 -2.4949192809392375 -0.15930405392719202 4.0
352 1 1 0 -2.4949192809392375 -0.15930405392719202 5.0
353 1 1 0 -2.4949192809392375 -0.15930405392719202 6.0
354 1 1 0 -2.4949192809392375 -0.15930405392719202 7.0
355 1 1 0 -2.4949192809392375 -0.15930405392719202 8.0
356 1 1 0 -2.4949192809392375 -0.15930405392719202 9.0
357 1 1 0 -2.4949192809392375 -0.15930405392719202 10.0
358 1 1 0 -2.4133197888529105 -0.6526006410745726 -10.0
359 1 1 0 -2.4133197888529105 -0.6526006410745726 -9.0
360 1 1 0 -2.4133197888529105 -0.6526006410745726 -8.0
361 1 1 0 -2.4133197888529105 -0.6526006410745726 -7.0
362 1 1 0 -2.4133197888529105 -0.6526006410745726 -6.0
363 1 1 0 -2.4133197888529105 -0.6526006410745726 -5.0
364 1 1 0 -2.4133197888529105 -0.6526006410745726 -4.0
365 1 1 0 -2.4133197888529105 -0.6526006410745726 -3.0
366 1 1 0 -2.4133197888529105 -0.6526006410745726 -2.0
367 1 1 0 -2.4133197888529105 -0.6526006410745726 -1.0
368 1 1 0 -2.4133197888529105 -0.6526006410745726 0.0
369 1 1 0 -2.4133197888529105 -0.6526006410745726 1.0
370 1 1 0 -2.4133197888529105 -0.6526006410745726 2.0
371 1 1 0 -2.4133197888529105 -0.6526006410745726 3.0
372 1 1 0 -2.4133197888529105 -0.6526006410745726 4.0
373 1 1 0 -2.4133197888529105 -0.6526006410745726 5.0
374 1 1 0 -2.4133197888529105 -0.6526006410745726 6.0
375 1 1 0 -2.4133197888529105 -0.6526006410745726 7.0
376 1 1 0 -2.4133197888529105 -0.6526006410745726 8.0
377 1 1 0 -2.4133197888529105 -0.6526006410745726 9.0
378 1 1 0 -2.4133197888529105 -0.6526006410745726 10.0
379 1 1 0 -2.2351875052124672 -1.1197932025789703 -10.0
380 1 1 0 -2.2351875052124672 -1.1197932025789703 -9.0
381 1 1 0 -2.2351875052124672 -1.1197932025789703 -8.0
382 1 1 0 -2.2351875052124672 -1.1197932025789703 -7.0
383 1 1 0 -2.2351875052124672 -1.1197932025789703 -6.0
384 1 1 0 -2.2351875052124672 -1.1197932025789703 -5.0
385 1 1 0 -2.2351875052124672 -1.1197932025789703 -4.0
386 1 1 0 -2.2351875052124672 -1.1197932025789703 -3.0
387 1 1 0 -2.2351875052124672 -1.1197932025789703 -2.0
388 1 1 0 -2.2351875052124672 -1.1197932025789703 -1.0
389 1 1 0 -2.2351875052124672 -1.1197932025789703 0.0
390 1 1 0 -2.2351875052124672 -1.1197932025789703 1.0
391 1 1 0 -2.2351875052124672 -1.1197932025789703 2.0
392 1 1 0 -2.2351875052124672 -1.1197932025789703 3.0
393 1 1 0 -2.2351875052124672 -1.1197932025789703 4.0
394 1 1 0 -2.2351875052124672 -1.1197932025789703 5.0
395 1 1 0 -2.2351875052124672 -1.1197932025789703 6.0
396 1 1 0 -2.2351875052124672 -1.1197932025789703 7.0
397 1 1 0 -2.2351875052124672 -1.1197932025789703 8.0
398 1 1 0 -2.2351875052124672 -1.1197932025789703 9.0
399 1 1 0 -2.2351875052124672 -1.1197932025789703 10.0
400 1 1 0 -1.9676477213635255 -1.542194035980209 -10.0
401 1 1 0 -1.9676477213635255 -1.542194035980209 -9.0
402 1 1 0 -1.9676477213635255 -1.542194035980209 -8.0
403 1 1 0 -1.9676477213635255 -1.542194035980209 -7.0
404 1 1 0 -1.9676477213635255 -1.542194035980209 -6.0
405 1 1 0 -1.9676477213635255 -1.542194035980209 -5.0
406 1 1 0 -1.9676477213635255 -1.542194035980209 -4.0
407 1 1 0 -1.9676477213635255 -1.542194035980209 -3.0
408 1 1 0 -1.9676477213635255 -1.542194035980209 -2.0
409 1 1 0 -1.9676477213635255 -1.542194035980209 -1.0
410 1 1 0 -1.9676477213635255 -1.542194035980209 0.0
411 1 1 0 -1.9676477213635255 -1.542194035980209 1.0
412 1 1 0 -1.9676477213635255 -1.542194035980209 2.0
413 1 1 0 -1.9676477213635255 -1.542194035980209 3.0
414 1 1 0 -1.9676477213635255 -1.542194035980209 4.0
415 1 1 0 -1.9676477213635255 -1.542194035980209 5.0
416 1 1 0 -1.9676477213635255 -1.542194035980209 6.0
417 1 1 0 -1.9676477213635255 -1.542194035980209 7.0
418 1 1 0 -1.9676477213635255 -1.542194035980209 8.0
419 1 1 0 -1.9676477213635255 -1.542194035980209 9.0
420 1 1 0 -1.9676477213635255 -1.542194035980209 10.0
421 1 1 0 -1.6214020286600426 -1.9029071079422397 -10.0
422 1 1 0 -1.6214020286600426 -1.9029071079422397 -9.0
423 1 1 0 -1.6214020286600426 -1.9029071079422397 -8.0
424 1 1 0 -1.6214020286600426 -1.9029071079422397 -7.0
425 1 1 0 -1.6214020286600426 -1.9029071079422397 -6.0
426 1 1 0 -1.6214020286600426 -1.9029071079422397 -5.0
427 1 1 0 -1.6214020286600426 -1.9029071079422397 -4.0
428 1 1 0 -1.6214020286600426 -1.9029071079422397 -3.0
429 1 1 0 -1.6214020286600426 -1.9029071079422397 -2.0
430 1 1 0 -1.6214020286600426 -1.9029071079422397 -1.0
431 1 1 0 -1.6214020286600426 -1.9029071079422397 0.0
432 1 1 0 -1.6214020286600426 -1.9029071079422397 1.0
433 1 1 0 -1.6214020286600426 -1.9029071079422397 2.0
434 1 1 0 -1.6214020286600426 -1.9029071079422397 3.0
435 1 1 0 -1.6214020286600426 -1.9029071079422397 4.0
436 1 1 0 -1.6214020286600426 -1.9029071079422397 5.0
437 1 1 0 -1.6214020286600426 -1.9029071079422397 6.0
438 1 1 0 -1.6214020286600426 -1.9029071079422397 7.0
439 1 1 0 -1.6214020286600426 -1.9029071079422397 8.0
440 1 1 0 -1.6214020286600426 -1.9029071079422397 9.0
441 1 1 0 -1.6214020286600426 -1.9029071079422397 10.0
442 1 1 0 -1.210300254810158 -2.187503895586581 -10.0
443 1 1 0 -1.210300254810158 -2.187503895586581 -9.0
444 1 1 0 -1.210300254810158 -2.187503895586581 -8.0
445 1 1 0 -1.210300254810158 -2.187503895586581 -7.0
446 1 1 0 -1.210300254810158 -2.187503895586581 -6.0
447 1 1 0 -1.210300254810158 -2.187503895586581 -5.0
448 1 1 0 -1.210300254810158 -2.187503895586581 -4.0
449 1 1 0 -1.210300254810158 -2.187503895586581 -3.0
450 1 1 0 -1.210300254810158 -2.187503895586581 -2.0
451 1 1 0 -1.210300254810158 -2.187503895586581 -1.0
452 1 1 0 -1.210300254810158 -2.187503895586581 0.0
453 1 1 0 -1.210300254810158 -2.187503895586581 1.0
454 1 1 0 -1.210300254810158 -2.187503895586581 2.0
455 1 1 0 -1.210300254810158 -2.187503895586581 3.0
456 1 1 0 -1.210300254810158 -2.187503895586581 4.0
457 1 1 0 -1.210300254810158 -2.187503895586581 5.0
458 1 1 0 -1.210300254810158 -2.187503895586581 6.0
459 1 1 0 -1.210300254810158 -2.187503895586581 7.0
460 1 1 0 -1.210300254810158 -2.187503895586581 8.0
461 1 1 0 -1.210300254810158 -2.187503895586581 9.0
462 1 1 0 -1.210300254810158 -2.187503895586581 10.0
463 1 1 0 -0.7507864707678673 -2.384600527407459 -10.0
464 1 1 0 -0.7507864707678673 -2.384600527407459 -9.0
465 1 1 0 -0.7507864707678673 -2.384600527407459 -8.0
466 1 1 0 -0.7507864707678673 -2.384600527407459 -7.0
467 1 1 0 -0.7507864707678673 -2.384600527407459 -6.0
468 1 1 0 -0.7507864707678673 -2.384600527407459 -5.0
469 1 1 0 -0.7507864707678673 -2.384600527407459 -4.0
470 1 1 0 -0.7507864707678673 -2.384600527407459 -3.0
471 1 1 0 -0.7507864707678673 -2.384600527407459 -2.0
472 1 1 0 -0.7507864707678673 -2.384600527407459 -1.0
473 1 1 0 -0.7507864707678673 -2.384600527407459 0.0
474 1 1 0 -0.7507864707678673 -2.384600527407459 1.0
475 1 1 0 -0.7507864707678673 -2.384600527407459 2.0
476 1 1 0 -0.7507864707678673 -2.384600527407459 3.0
477 1 1 0 -0.7507864707678673 -2.384600527407459 4.0
478 1 1 0 -0.7507864707678673 -2.384600527407459 5.0
479 1 1 0 -0.7507864707678673 -2.384600527407459 6.0
480 1 1 0 -0.7507864707678673 -2.384600527407459 7.0
481 1 1 0 -0.7507864707678673 -2.384600527407459 8.0
482 1 1 0 -0.7507864707678673 -2.384600527407459 9.0
483 1 1 0 -0.7507864707678673 -2.384600527407459 10.0
484 1 1 0 -0.2612412278948618 -2.4863131381320382 -10.0
485 1 1 0 -0.2612412278948618 -2.4863131381320382 -9.0
486 1 1 0 -0.2612412278948618 -2.4863131381320382 -8.0
487 1 1 0 -0.2612412278948618 -2.4863131381320382 -7.0
488 1 1 0 -0.2612412278948618 -2.4863131381320382 -6.0
489 1 1 0 -0.2612412278948618 -2.4863131381320382 -5.0
490 1 1 0 -0.2612412278948618 -2.4863131381320382 -4.0
491 1 1 0 -0.2612412278948618 -2.4863131381320382 -3.0
492 1 1 0 -0.2612412278948618 -2.4863131381320382 -2.0
493 1 1 0 -0.2612412278948618 -2.4863131381320382 -1.0
494 1 1 0 -0.2612412278948618 -2.4863131381320382 0.0
495 1 1 0 -0.2612412278948618 -2.4863131381320382 1.0
496 1 1 0 -0.2612412278948618 -2.4863131381320382 2.0
497 1 1 0 -0.2612412278948618 -2.4863131381320382 3.0
498 1 1 0 -0.2612412278948618 -2.4863131381320382 4.0
499 1 1 0 -0.2612412278948618 -2.4863131381320382 5.0
500 1 1 0 -0.2612412278948618 -2.4863131381320382 6.0
501 1 1 0 -0.2612412278948618 -2.4863131381320382 7.0
502 1 1 0 -0.2612412278948618 -2.4863131381320382 8.0
503 1 1 0 -0.2612412278948618 -2.4863131381320382 9.0
504 1 1 0 -0.2612412278948618 -2.4863131381320382 10.0
505 1 1 0 0.23875366409393806 -2.4885732233313367 -10.0
506 1 1 0 0.23875366409393806 -2.4885732233313367 -9.0
507 1 1 0 0.23875366409393806 -2.4885732233313367 -8.0
508 1 1 0 0.23875366409393806 -2.4885732233313367 -7.0
509 1 1 0 0.23875366409393806 -2.4885732233313367 -6.0
510 1 1 0 0.23875366409393806 -2.4885732233313367 -5.0
511 1 1 0 0.23875366409393806 -2.4885732233313367 -4.0
512 1 1 0 0.23875366409393806 -2.4885732233313367 -3.0
513 1 1 0 0.23875366409393806 -2.4885732233313367 -2.0
514 1 1 0 0.23875366409393806 -2.4885732233313367 -1.0
515 1 1 0 0.23875366409393806 -2.4885732233313367 0.0
516 1 1 0 0.23875366409393806 -2.4885732233313367 1.0
517 1 1 0 0.23875366409393806 -2.4885732233313367 2.0
518 1 1 0 0.23875366409393806 -2.4885732233313367 3.0
519 1 1 0 0.23875366409393806 -2.4885732233313367 4.0
520 1 1 0 0.23875366409393806 -2.4885732233313367 5.0
521 1 1 0 0.23875366409393806 -2.4885732233313367 6.0
522 1 1 0 0.23875366409393806 -2.4885732233313367 7.0
523 1 1 0 0.23875366409393806 -2.4885732233313367 8.0
524 1 1 0 0.23875366409393806 -2.4885732233313367 9.0
525 1 1 0 0.23875366409393806 -2.4885732233313367 10.0
526 1 1 0 0.7291984095189805 -2.3912903795973817 -10.0
527 1 1 0 0.7291984095189805 -2.3912903795973817 -9.0
528 1 1 0 0.7291984095189805 -2.3912903795973817 -8.0
529 1 1 0 0.7291984095189805 -2.3912903795973817 -7.0
530 1 1 0 0.7291984095189805 -2.3912903795973817 -6.0
531 1 1 0 0.7291984095189805 -2.3912903795973817 -5.0
532 1 1 0 0.7291984095189805 -2.3912903795973817 -4.0
533 1 1 0 0.7291984095189805 -2.3912903795973817 -3.0
534 1 1 0 0.7291984095189805 -2.3912903795973817 -2.0
535 1 1 0 0.7291984095189805 -2.3912903795973817 -1.0
536 1 1 0 0.7291984095189805 -2.3912903795973817 0.0
537 1 1 0 0.7291984095189805 -2.3912903795973817 1.0
538 1 1 0 0.7291984095189805 -2.3912903795973817 2.0
539 1 1 0 0.7291984095189805 -2.3912903795973817 3.0
540 1 1 0 0.7291984095189805 -2.3912903795973817 4.0
541 1 1 0 0.7291984095189805 -2.3912903795973817 5.0
542 1 1 0 0.7291984095189805 -2.3912903795973817 6.0
543 1 1 0 0.7291984095189805 -2.3912903795973817 7.0
544 1 1 0 0.7291984095189805 -2.3912903795973817 8.0
545 1 1 0 0.7291984095189805 -2.3912903795973817 9.0
546 1 1 0 0.7291984095189805 -2.3912903795973817 10.0
547 1 1 0 1.1904752185632637 -2.1983559206795316 -10.0
548 1 1 0 1.1904752185632637 -2.1983559206795316 -9.0
549 1 1 0 1.1904752185632637 -2.1983559206795316 -8.0
550 1 1 0 1.1904752185632637 -2.1983559206795316 -7.0
551 1 1 0 1.1904752185632637 -2.1983559206795316 -6.0
552 1 1 0 1.1904752185632637 -2.1983559206795316 -5.0
553 1 1 0 1.1904752185632637 -2.1983559206795316 -4.0
554 1 1 0 1.1904752185632637 -2.1983559206795316 -3.0
555 1 1 0 1.1904752185632637 -2.1983559206795316 -2.0
556 1 1 0 1.1904752185632637 -2.1983559206795316 -1.0
557 1 1 0 1.1904752185632637 -2.1983559206795316 0.0
558 1 1 0 1.1904752185632637 -2.1983559206795316 1.0
559 1 1 0 1.1904752185632637 -2.1983559206795316 2.0
560 1 1 0 1.1904752185632637 -2.1983559206795316 3.0
561 1 1 0 1.1904752185632637 -2.1983559206795316 4.0
562 1 1 0 1.1904752185632637 -2.1983559206795316 5.0
563 1 1 0 1.1904752185632637 -2.1983559206795316 6.0
564 1 1 0 1.1904752185632637 -2.1983559206795316 7.0
565 1 1 0 1.1904752185632637 -2.1983559206795316 8.0
566 1 1 0 1.1904752185632637 -2.1983559206795316 9.0
567 1 1 0 1.1904752185632637 -2.1983559206795316 10.0
568 1 1 0 1.6041330188650162 -1.9174872249344999 -10.0
569 1 1 0 1.6041330188650162 -1.9174872249344999 -9.0
570 1 1 0 1.6041330188650162 -1.9174872249344999 -8.0
571 1 1 0 1.6041330188650162 -1.9174872249344999 -7.0
572 1 1 0 1.6041330188650162 -1.9174872249344999 -6.0
573 1 1 0 1.6041330188650162 -1.9174872249344999 -5.0
574 1 1 0 1.6041330188650162 -1.9174872249344999 -4.0
575 1 1 0 1.6041330188650162 -1.9174872249344999 -3.0
576 1 1 0 1.6041330188650162 -1.9174872249344999 -2.0
577 1 1 0 1.6041330188650162 -1.9174872249344999 -1.0
578 1 1 0 1.6041330188650162 -1.9174872249344999 0.0
579 1 1 0 1.6041330188650162 -1.9174872249344999 1.0
580 1 1 0 1.6041330188650162 -1.9174872249344999 2.0
581 1 1 0 1.6041330188650162 -1.9174872249344999 3.0
582 1 1 0 1.6041330188650162 -1.9174872249344999 4.0
583 1 1 0 1.6041330188650162 -1.9174872249344999 5.0
584 1 1 0 1.6041330188650162 -1.9174872249344999 6.0
585 1 1 0 1.6041330188650162 -1.9174872249344999 7.0