LAMMPS (27 May 2021)
OMP_NUM_THREADS environment is not set. Defaulting to 1 thread. (src/comm.cpp:98)
  using 1 OpenMP thread(s) per MPI task
#pore simulation with negative charge

units lj
boundary p p p
atom_style full

read_data data.txt	#read_data
Reading data file ...
  orthogonal box = (-8.0000000 -8.0000000 -50.000000) to (8.0000000 8.0000000 50.000000)
  1 by 1 by 1 MPI processor grid
  reading atoms ...
  1104 atoms
  reading velocities ...
  1104 velocities
Finding 1-2 1-3 1-4 neighbors ...
  special bond factors lj:    0        0        0       
  special bond factors coul:  0        0        0       
     0 = max # of 1-2 neighbors
     0 = max # of 1-3 neighbors
     0 = max # of 1-4 neighbors
     1 = max # of special neighbors
  special bonds CPU = 0.001 seconds
  read_data CPU = 0.006 seconds
group move type 2
5 atoms in group move
group still type 1
1099 atoms in group still
region inside block -2.5 2.5 -2.5 2.5 -10.0 10.0
region outside1 block  -8 8 -8 8 -50.0 -10.0
region outside2 block  -8 8 -8 8 10.0 50.0

pair_style lj/cut/coul/cut 1.12		#lj/cut columb/cut
pair_coeff * * 1.0 1.0
velocity still create 1 77484

neighbor 0.3 bin
neigh_modify every 20 delay 0 check no

fix 1 move nve
fix 3 move efield 0 0 -5.12216e-1 region inside
fix 4 move efield 0 0 -5.12216e-2 region outside1
fix 5 move efield 0 0 -5.12216e-2 region outside2
fix 2 move langevin 1 1 1 85748

dump id all custom 50 output.lammpstrj id type x y z		#vmd/pymol
thermo 100
timestep 0.005
run 80000
Neighbor list info ...
  update every 20 steps, delay 0 steps, check no
  max neighbors/atom: 2000, page size: 100000
  master list distance cutoff = 1.42
  ghost atom cutoff = 1.42
  binsize = 0.71, bins = 23 23 141
  1 neighbor lists, perpetual/occasional/extra = 1 0 0
  (1) pair lj/cut/coul/cut, perpetual
      attributes: half, newton on
      pair build: half/bin/newton
      stencil: half/bin/3d
      bin: standard
Per MPI rank memory allocation (min/avg/max) = 7.244 | 7.244 | 7.244 Mbytes
Step Temp E_pair E_mol TotEng Press 
       0    1.0042551    9209.3541            0    9210.8591    1602.1848 
     100   0.99870049    9209.3541            0    9210.8508    1602.1845 
     200   0.99924742    9209.3541            0    9210.8516    1602.1846 
     300    1.0003306    9209.3541            0    9210.8533    1602.1846 
     400   0.99865085    9209.3541            0    9210.8507    1602.1845 
     500   0.99875051    9209.3541            0    9210.8509    1602.1846 
     600    1.0003482    9209.3541            0    9210.8533    1602.1846 
     700   0.99934987    9209.3541            0    9210.8518    1602.1846 
     800   0.99842089    9209.3541            0    9210.8504    1602.1845 
     900   0.99818235    9209.3541            0      9210.85    1602.1845 
    1000   0.99735494    9209.3541            0    9210.8488    1602.1845 
    1100    1.0028583    9209.3541            0     9210.857    1602.1847 
    1200    1.0040371    9209.3533            0     9210.858    1602.1849 
    1300    1.0006834    9209.3541            0    9210.8538    1602.1846 
    1400   0.99944503    9209.3541            0    9210.8519    1602.1846 
    1500    1.0029299    9209.3541            0    9210.8572    1602.1847 
    1600   0.99832514    9209.3541            0    9210.8503    1602.1845 
    1700   0.99879914    9209.3541            0     9210.851    1602.1846 
    1800    0.9999298    9209.3541            0    9210.8527    1602.1846 
    1900   0.99935844    9209.3541            0    9210.8518    1602.1846 
    2000   0.99791315    9209.3541            0    9210.8496    1602.1845 
    2100     0.997821    9209.3541            0    9210.8495    1602.1845 
    2200   0.99783639    9209.3541            0    9210.8495    1602.1845 
    2300   0.99971195    9209.3541            0    9210.8523    1602.1846 
    2400    1.0007219    9209.3541            0    9210.8538    1602.1846 
    2500   0.99975199    9209.3541            0    9210.8524    1602.1846 
    2600    1.0006324    9209.3541            0    9210.8537    1602.1846 
    2700    1.0001744    9209.3541            0     9210.853    1602.1846 
    2800    1.0004483    9209.3541            0    9210.8534    1602.1846 
    2900    0.9987883    9209.3541            0    9210.8509    1602.1846 
    3000   0.99889387    9209.3541            0    9210.8511    1602.1846 
    3100   0.99997912    9209.3541            0    9210.8527    1602.1846 
    3200    1.0009379    9209.3541            0    9210.8542    1602.1846 
    3300   0.99757851    9209.3541            0    9210.8491    1602.1845 
    3400   0.99921379    9209.3541            0    9210.8516    1602.1846 
    3500   0.99914773    9209.3541            0    9210.8515    1602.1846 
    3600   0.99865604    9209.3541            0    9210.8507    1602.1845 
    3700   0.99919253    9209.3541            0    9210.8516    1602.1846 
    3800    1.0010787    9209.3541            0    9210.8544    1602.1847 
    3900   0.99849471    9209.3541            0    9210.8505    1602.1845 
    4000   0.99842124    9209.3541            0    9210.8504    1602.1845 
    4100   0.99802545    9209.3541            0    9210.8498    1602.1845 
    4200   0.99967877    9209.3541            0    9210.8523    1602.1846 
    4300   0.99861116    9209.3541            0    9210.8507    1602.1845 
    4400    1.0008822    9209.3541            0    9210.8541    1602.1846 
    4500    1.0047662    9209.3541            0    9210.8599    1602.1848 
    4600    1.0016937    9209.3541            0    9210.8553    1602.1847 
    4700    1.0006994    9209.3541            0    9210.8538    1602.1846 
    4800   0.99790022    9209.3541            0    9210.8496    1602.1845 
    4900   0.99711652    9209.3541            0    9210.8484    1602.1845 
    5000   0.99975318    9209.3541            0    9210.8524    1602.1846 
    5100   0.99768466    9209.3541            0    9210.8493    1602.1845 
    5200   0.99979923    9209.3541            0    9210.8525    1602.1846 
    5300    1.0007843    9209.3541            0    9210.8539    1602.1846 
    5400   0.99840908    9209.3541            0    9210.8504    1602.1845 
    5500   0.99901654    9209.3541            0    9210.8513    1602.1846 
    5600    1.0024308    9209.3541            0    9210.8564    1602.1847 
    5700    1.0012459    9209.3541            0    9210.8546    1602.1847 
    5800    0.9997214    9209.3541            0    9210.8523    1602.1846 
    5900   0.99970653    9209.3541            0    9210.8523    1602.1846 
    6000     1.001929    9209.3541            0    9210.8557    1602.1847 
    6100   0.99975917    9209.3541            0    9210.8524    1602.1846 
    6200   0.99966035    9209.3541            0    9210.8523    1602.1846 
    6300   0.99910275    9209.3541            0    9210.8514    1602.1846 
    6400    1.0004391    9209.3541            0    9210.8534    1602.1846 
    6500   0.99920221    9209.3541            0    9210.8516    1602.1846 
    6600    1.0000329    9209.3541            0    9210.8528    1602.1846 
    6700   0.99883918    9209.3541            0     9210.851    1602.1846 
    6800   0.99966875    9209.3533            0    9210.8514    1602.1846 
    6900   0.99764255    9209.3541            0    9210.8492    1602.1845 
    7000    1.0000828    9209.3541            0    9210.8529    1602.1846 
    7100   0.99831411    9209.3541            0    9210.8502    1602.1845 
    7200   0.99869831    9209.3541            0    9210.8508    1602.1845 
    7300   0.99704678    9209.3541            0    9210.8483    1602.1845 
    7400   0.99869143    9209.3541            0    9210.8508    1602.1845 
    7500   0.99705636    9209.3533            0    9210.8475    1602.1845 
    7600   0.99947423    9209.3541            0     9210.852    1602.1846 
    7700    1.0023531    9209.3541            0    9210.8563    1602.1847 
    7800    1.0011296    9209.3541            0    9210.8545    1602.1847 
    7900   0.99927356    9209.3541            0    9210.8517    1602.1846 
    8000    1.0001842    9209.3541            0     9210.853    1602.1846 
    8100   0.99981433    9209.3541            0    9210.8525    1602.1846 
    8200    1.0012753    9209.3541            0    9210.8547    1602.1847 
    8300    1.0001207    9209.3541            0    9210.8529    1602.1846 
    8400   0.99924181    9209.3541            0    9210.8516    1602.1846 
    8500    1.0014817    9209.3541            0     9210.855    1602.1847 
    8600   0.99698622    9209.3541            0    9210.8482    1602.1845 
    8700    1.0019311    9209.3541            0    9210.8557    1602.1847 
    8800    0.9996021    9209.3541            0    9210.8522    1602.1846 
    8900    1.0000303    9209.3541            0    9210.8528    1602.1846 
    9000    1.0009323    9209.3541            0    9210.8542    1602.1846 
    9100    1.0004915    9209.3541            0    9210.8535    1602.1846 
    9200    1.0013469    9209.3541            0    9210.8548    1602.1847 
    9300    1.0008478    9209.3541            0     9210.854    1602.1846 
    9400    1.0012564    9209.3541            0    9210.8546    1602.1847 
    9500   0.99762373    9209.3541            0    9210.8492    1602.1845 
    9600    1.0010702    9209.3541            0    9210.8544    1602.1847 
    9700    1.0022368    9209.3541            0    9210.8561    1602.1847 
    9800    1.0006588    9209.3541            0    9210.8538    1602.1846 
    9900    0.9987114    9209.3541            0    9210.8508    1602.1845 
   10000   0.99911239    9209.3541            0    9210.8514    1602.1846 
   10100   0.99826403    9209.3541            0    9210.8502    1602.1845 
   10200   0.99950475    9209.3541            0     9210.852    1602.1846 
   10300   0.99770133    9209.3541            0    9210.8493    1602.1845 
   10400   0.99851412    9209.3541            0    9210.8505    1602.1845 
   10500   0.99777208    9209.3541            0    9210.8494    1602.1845 
   10600   0.99908696    9209.3541            0    9210.8514    1602.1846 
   10700   0.99892112    9209.3541            0    9210.8511    1602.1846 
   10800    1.0000646    9209.3541            0    9210.8529    1602.1846 
   10900     1.002088    9209.3541            0    9210.8559    1602.1847 
   11000   0.99929697    9209.3541            0    9210.8517    1602.1846 
   11100    1.0001168    9209.3541            0    9210.8529    1602.1846 
   11200   0.99978365    9209.3541            0    9210.8524    1602.1846 
   11300   0.99951246    9209.3541            0     9210.852    1602.1846 
   11400    0.9973649    9209.3541            0    9210.8488    1602.1845 
   11500   0.99920101    9209.3541            0    9210.8516    1602.1846 
   11600    1.0000359    9209.3532            0    9210.8519    1602.1846 
   11700   0.99959658    9209.3541            0    9210.8522    1602.1846 
   11800    1.0003934    9209.3541            0    9210.8534    1602.1846 
   11900   0.99890379    9209.3523            0    9210.8493    1602.1846 
   12000   0.99916618    9209.3541            0    9210.8515    1602.1846 
   12100    1.0014827    9209.3541            0     9210.855    1602.1847 
   12200    1.0008688    9209.3541            0    9210.8541    1602.1846 
   12300    1.0019244    9209.3541            0    9210.8556    1602.1847 
   12400    1.0007289    9209.3541            0    9210.8539    1602.1846 
   12500    1.0017202    9209.3541            0    9210.8553    1602.1847 
   12600   0.99762389    9209.3541            0    9210.8492    1602.1845 
   12700   0.99866346    9209.3541            0    9210.8508    1602.1845 
   12800    1.0005883    9209.3541            0    9210.8536    1602.1846 
   12900   0.99939967    9209.3532            0     9210.851    1602.1846 
   13000   0.99883813    9209.3541            0     9210.851    1602.1846 
   13100   0.99958458    9209.3541            0    9210.8521    1602.1846 
   13200   0.99965925    9209.3541            0    9210.8523    1602.1846 
   13300   0.99960437    9209.3541            0    9210.8522    1602.1846 
   13400   0.99803195    9209.3541            0    9210.8498    1602.1845 
   13500   0.99992778    9209.3541            0    9210.8527    1602.1846 
   13600    1.0000068    9209.3541            0    9210.8528    1602.1846 
   13700   0.99813624    9209.3541            0      9210.85    1602.1845 
   13800   0.99997455    9209.3533            0    9210.8519    1602.1846 
   13900    1.0004176    9209.3541            0    9210.8534    1602.1846 
   14000   0.99997506    9209.3541            0    9210.8527    1602.1846 
   14100   0.99923817    9209.3525            0      9210.85    1602.1847 
   14200    0.9990616    9209.3541            0    9210.8514    1602.1846 
   14300   0.99772051    9209.3541            0    9210.8493    1602.1845 
   14400   0.99935198    9209.3541            0    9210.8518    1602.1846 
   14500   0.99913739    9209.3541            0    9210.8515    1602.1846 
   14600   0.99953012    9209.3541            0    9210.8521    1602.1846 
   14700    1.0014095    9209.3541            0    9210.8549    1602.1847 
   14800   0.99837692    9209.3541            0    9210.8503    1602.1845 
   14900   0.99916604    9209.3541            0    9210.8515    1602.1846 
   15000   0.99798461    9209.3541            0    9210.8497    1602.1845 
   15100   0.99821445    9209.3541            0    9210.8501    1602.1845 
   15200    1.0002335    9209.3541            0    9210.8531    1602.1846 
   15300   0.99846473    9209.3525            0    9210.8488    1602.1846 
   15400   0.99915544    9209.3541            0    9210.8515    1602.1846 
   15500    1.0011549    9209.3541            0    9210.8545    1602.1847 
   15600   0.99846897    9209.3532            0    9210.8496    1602.1846 
   15700   0.99777369    9209.3541            0    9210.8494    1602.1845 
   15800   0.99978633    9209.3541            0    9210.8524    1602.1846 
   15900   0.99754961    9209.3541            0    9210.8491    1602.1845 
   16000    0.9987165    9209.3541            0    9210.8508    1602.1845 
   16100   0.99999426    9209.3532            0    9210.8519    1602.1846 
   16200   0.99807938    9209.3541            0    9210.8499    1602.1845 
   16300   0.99757352    9209.3541            0    9210.8491    1602.1845 
   16400   0.99973751    9209.3541            0    9210.8524    1602.1846 
   16500    1.0037303    9209.3541            0    9210.8584    1602.1848 
   16600    1.0006471    9209.3541            0    9210.8537    1602.1846 
   16700    1.0017825    9209.3541            0    9210.8554    1602.1847 
   16800    1.0021753    9209.3541            0     9210.856    1602.1847 
   16900   0.99870351    9209.3523            0     9210.849    1602.1846 
   17000   0.99944814    9209.3541            0    9210.8519    1602.1846 
   17100   0.99921743    9209.3541            0    9210.8516    1602.1846 
   17200    1.0012856    9209.3511            0    9210.8516     1602.185 
   17300    1.0003325    9209.3541            0    9210.8533    1602.1846 
   17400   0.99953104    9209.3521            0      9210.85    1602.1858 
   17500    1.0007302    9209.3541            0    9210.8539    1602.1846 
   17600   0.99853193    9209.3541            0    9210.8506    1602.1845 
   17700   0.99918359    9209.3541            0    9210.8515    1602.1846 
   17800   0.99909095    9209.3541            0    9210.8514    1602.1846 
   17900    1.0017014    9209.3541            0    9210.8553    1602.1847 
   18000    1.0034907    9209.3541            0     9210.858    1602.1848 
   18100   0.99978607    9209.3537            0     9210.852    1602.1857 
   18200   0.99994012    9209.3541            0    9210.8527    1602.1846 
   18300   0.99955838    9209.3541            0    9210.8521    1602.1846 
   18400    0.9999705    9209.3541            0    9210.8527    1602.1846 
   18500   0.99933357    9209.3541            0    9210.8518    1602.1846 
   18600   0.99803365    9209.3541            0    9210.8498    1602.1845 
   18700   0.99976867    9209.3541            0    9210.8524    1602.1846 
   18800    1.0038874    9209.3541            0    9210.8586    1602.1848 
   18900   0.99847604    9209.3525            0    9210.8489    1602.1847 
   19000   0.99996034    9209.3541            0    9210.8527    1602.1846 
   19100   0.99953885    9209.3541            0    9210.8521    1602.1846 
   19200   0.99942752    9209.3541            0    9210.8519    1602.1846 
   19300    1.0008538    9209.3541            0     9210.854    1602.1847 
   19400     1.000186    9209.3525            0    9210.8515    1602.1848 
   19500    1.0011976    9209.3541            0    9210.8546    1602.1847 
   19600   0.99944607    9209.3541            0    9210.8519    1602.1846 
   19700   0.99992087    9209.3541            0    9210.8526    1602.1846 
   19800    1.0015987    9209.3541            0    9210.8552    1602.1847 
   19900    1.0059316    9209.3541            0    9210.8617    1602.1849 
   20000    1.0047222    9209.3541            0    9210.8598    1602.1848 
   20100    1.0011328    9209.3541            0    9210.8545    1602.1847 
   20200    1.0010388    9209.3541            0    9210.8543    1602.1846 
   20300    1.0007131    9209.3532            0    9210.8529    1602.1846 
   20400    1.0012405    9209.3523            0    9210.8528    1602.1847 
   20500   0.99913948    9209.3532            0    9210.8506    1602.1846 
   20600   0.99899119    9209.3532            0    9210.8504    1602.1846 
   20700   0.99779703     9209.352            0    9210.8473    1602.1848 
   20800   0.99794114    9209.3541            0    9210.8497    1602.1845 
   20900   0.99919294    9209.3541            0    9210.8516    1602.1846 
   21000     1.000002    9209.3541            0    9210.8528    1602.1846 
   21100   0.99706348    9209.3541            0    9210.8484    1602.1845 
   21200    0.9980717    9209.3541            0    9210.8499    1602.1845 
   21300   0.99966142    9209.3541            0    9210.8523    1602.1846 
   21400    0.9990779    9209.3541            0    9210.8514    1602.1846 
   21500   0.99787317    9209.3541            0    9210.8496    1602.1845 
   21600   0.99682529    9209.3541            0     9210.848    1602.1845 
   21700    1.0029509    9209.3504            0    9210.8535    1602.1851 
   21800   0.99918513    9209.3541            0    9210.8515    1602.1846 
   21900    1.0009682    9209.3541            0    9210.8542    1602.1846 
   22000    1.0009676    9209.3541            0    9210.8542    1602.1846 
   22100   0.99886078    9209.3541            0    9210.8511    1602.1846 
   22200   0.99980858    9209.3541            0    9210.8525    1602.1846 
   22300     1.000143    9209.3541            0     9210.853    1602.1846 
   22400   0.99873131    9209.3541            0    9210.8509    1602.1845 
   22500     1.000505    9209.3541            0    9210.8535    1602.1846 
   22600    1.0001156    9209.3541            0    9210.8529    1602.1846 
   22700   0.99852599    9209.3536            0      9210.85    1602.1847 
   22800   0.99835616    9209.3541            0    9210.8503    1602.1845 
   22900   0.99816325    9209.3541            0      9210.85    1602.1845 
   23000   0.99856684    9209.3517            0    9210.8482    1602.1847 
   23100   0.99984462    9209.3541            0    9210.8525    1602.1846 
   23200   0.99982832    9209.3524            0    9210.8508    1602.1847 
   23300    1.0009436    9209.3541            0    9210.8542    1602.1846 
   23400   0.99766312    9209.3541            0    9210.8493    1602.1845 
   23500   0.99780604    9209.3541            0    9210.8495    1602.1845 
   23600   0.99870143    9209.3541            0    9210.8508    1602.1845 
   23700    0.9982027    9209.3541            0    9210.8501    1602.1845 
   23800   0.99812268    9209.3541            0    9210.8499    1602.1845 
   23900   0.99865204    9209.3541            0    9210.8507    1602.1845 
   24000    1.0005136    9209.3541            0    9210.8535    1602.1846 
   24100    1.0024358    9209.3541            0    9210.8564    1602.1847 
   24200    1.0001737    9209.3541            0     9210.853    1602.1846 
   24300   0.99944416    9209.3533            0    9210.8511    1602.1846 
   24400    1.0010338    9209.3541            0    9210.8543    1602.1846 
   24500     1.000521    9209.3541            0    9210.8535    1602.1846 
   24600   0.99943108    9209.3541            0    9210.8519    1602.1846 
   24700    1.0004333    9209.3541            0    9210.8534    1602.1846 
   24800    1.0015013    9209.3541            0     9210.855    1602.1847 
   24900   0.99982131    9209.3541            0    9210.8525    1602.1846 
   25000   0.99888174    9209.3541            0    9210.8511    1602.1846 
   25100   0.99975452    9209.3532            0    9210.8515    1602.1846 
   25200   0.99846531    9209.3541            0    9210.8505    1602.1845 
   25300    1.0006687    9209.3541            0    9210.8538    1602.1846 
   25400    1.0026713    9209.3528            0    9210.8555    1602.1853 
   25500    1.0048553    9209.3541            0      9210.86    1602.1848 
   25600     1.000232    9209.3532            0    9210.8522    1602.1846 
   25700   0.99880498    9209.3541            0     9210.851    1602.1846 
   25800   0.99906024    9209.3541            0    9210.8514    1602.1846 
   25900   0.99969241    9209.3541            0    9210.8523    1602.1846 
   26000   0.99888527    9209.3524            0    9210.8493    1602.1846 
   26100   0.99868432    9209.3541            0    9210.8508    1602.1845 
   26200    1.0021491    9209.3541            0     9210.856    1602.1847 
   26300    1.0007085    9209.3541            0    9210.8538    1602.1846 
   26400   0.99888676    9209.3541            0    9210.8511    1602.1846 
   26500    1.0006375    9209.3541            0    9210.8537    1602.1846 
   26600   0.99785335    9209.3541            0    9210.8495    1602.1845 
   26700   0.99998602    9209.3541            0    9210.8527    1602.1846 
   26800   0.99878992    9209.3533            0    9210.8501    1602.1846 
   26900   0.99931619    9209.3541            0    9210.8517    1602.1846 
   27000   0.99799893    9209.3541            0    9210.8498    1602.1845 
   27100   0.99944331    9209.3541            0    9210.8519    1602.1846 
   27200    1.0000311    9209.3541            0    9210.8528    1602.1846 
   27300   0.99982819    9209.3541            0    9210.8525    1602.1846 
   27400    1.0020008    9209.3541            0    9210.8558    1602.1847 
   27500    1.0022572    9209.3541            0    9210.8561    1602.1847 
   27600     1.001647    9209.3541            0    9210.8552    1602.1847 
   27700    1.0001779    9209.3541            0     9210.853    1602.1846 
   27800    1.0009079     9209.353            0     9210.853    1602.1849 
   27900    1.0006316    9209.3541            0    9210.8537    1602.1846 
   28000    1.0007843    9209.3541            0    9210.8539    1602.1846 
   28100    1.0047112    9209.3541            0    9210.8598    1602.1848 
   28200    1.0055882    9209.3541            0    9210.8611    1602.1848 
   28300    1.0021535    9209.3541            0     9210.856    1602.1847 
   28400    1.0009392    9209.3541            0    9210.8542    1602.1846 
   28500   0.99892751    9209.3541            0    9210.8512    1602.1846 
   28600   0.99814215    9209.3541            0      9210.85    1602.1845 
   28700   0.99926626    9209.3525            0    9210.8501    1602.1847 
   28800    1.0011019    9209.3541            0    9210.8544    1602.1847 
   28900   0.99900553    9209.3541            0    9210.8513    1602.1846 
   29000    1.0019163    9209.3541            0    9210.8556    1602.1847 
   29100   0.99958701    9209.3541            0    9210.8521    1602.1846 
   29200    0.9992757    9209.3541            0    9210.8517    1602.1846 
   29300     1.000865    9209.3541            0    9210.8541    1602.1846 
   29400   0.99839923    9209.3541            0    9210.8504    1602.1845 
   29500    0.9986215    9209.3541            0    9210.8507    1602.1845 
   29600   0.99877622    9209.3541            0    9210.8509    1602.1846 
   29700   0.99756208    9209.3532            0    9210.8482    1602.1845 
   29800   0.99768198    9209.3541            0    9210.8493    1602.1845 
   29900   0.99901239    9209.3532            0    9210.8504    1602.1846 
   30000    1.0021186    9209.3541            0    9210.8559    1602.1847 
   30100   0.99930437    9209.3541            0    9210.8517    1602.1846 
   30200   0.99833199    9209.3541            0    9210.8503    1602.1845 
   30300   0.99946061    9209.3541            0     9210.852    1602.1846 
   30400    1.0006542    9209.3541            0    9210.8537    1602.1846 
   30500    1.0001662    9209.3541            0     9210.853    1602.1846 
   30600   0.99721382    9209.3541            0    9210.8486    1602.1845 
   30700   0.99833736    9209.3541            0    9210.8503    1602.1845 
   30800   0.99818284    9209.3541            0      9210.85    1602.1845 
   30900    1.0000544    9209.3541            0    9210.8528    1602.1846 
   31000    1.0007211    9209.3541            0    9210.8538    1602.1846 
   31100   0.99946169    9209.3541            0     9210.852    1602.1846 
   31200   0.99908053    9209.3541            0    9210.8514    1602.1846 
   31300    1.0000017    9209.3541            0    9210.8528    1602.1846 
   31400    1.0002962    9209.3541            0    9210.8532    1602.1846 
   31500    1.0012902    9209.3541            0    9210.8547    1602.1847 
   31600    1.0008271    9209.3541            0     9210.854    1602.1846 
   31700    1.0022682    9209.3541            0    9210.8562    1602.1847 
   31800    1.0006387    9209.3541            0    9210.8537    1602.1846 
   31900    1.0002359    9209.3541            0    9210.8531    1602.1846 
   32000   0.99970147    9209.3541            0    9210.8523    1602.1846 
   32100    0.9977814    9209.3541            0    9210.8494    1602.1845 
   32200   0.99830402    9209.3541            0    9210.8502    1602.1845 
   32300    1.0000367    9209.3533            0     9210.852    1602.1847 
   32400    1.0037233    9209.3541            0    9210.8583    1602.1848 
   32500    1.0003691    9209.3541            0    9210.8533    1602.1846 
   32600   0.99915652    9209.3541            0    9210.8515    1602.1846 
   32700   0.99733718    9209.3541            0    9210.8488    1602.1845 
   32800   0.99803927    9209.3541            0    9210.8498    1602.1845 
   32900   0.99685978    9209.3541            0    9210.8481    1602.1845 
   33000   0.99887399    9209.3541            0    9210.8511    1602.1846 
   33100   0.99791311    9209.3541            0    9210.8496    1602.1845 
   33200   0.99790676    9209.3541            0    9210.8496    1602.1845 
   33300   0.99884747    9209.3541            0     9210.851    1602.1846 
   33400   0.99974647    9209.3541            0    9210.8524    1602.1846 
   33500   0.99771233    9209.3541            0    9210.8493    1602.1845 
   33600   0.99877452    9209.3541            0    9210.8509    1602.1846 
   33700    1.0006509    9209.3541            0    9210.8537    1602.1846 
   33800    1.0016713    9209.3541            0    9210.8553    1602.1847 
   33900   0.99956924    9209.3541            0    9210.8521    1602.1846 
   34000   0.99787153    9209.3534            0    9210.8489    1602.1846 
   34100   0.99929576    9209.3533            0    9210.8509    1602.1846 
   34200    1.0022066    9209.3541            0    9210.8561    1602.1847 
   34300   0.99879856    9209.3541            0     9210.851    1602.1846 
   34400   0.99942853    9209.3541            0    9210.8519    1602.1846 
   34500   0.99732889    9209.3541            0    9210.8488    1602.1845 
   34600    1.0004603    9209.3541            0    9210.8535    1602.1846 
   34700    1.0018283    9209.3541            0    9210.8555    1602.1847 
   34800     1.000158    9209.3541            0     9210.853    1602.1846 
   34900    1.0034128    9209.3541            0    9210.8579    1602.1848 
   35000    1.0016833    9209.3541            0    9210.8553    1602.1847 
   35100    1.0003629    9209.3541            0    9210.8533    1602.1846 
   35200    1.0009433    9209.3541            0    9210.8542    1602.1846 
   35300    1.0012871    9209.3541            0    9210.8547    1602.1847 
   35400    1.0006307    9209.3541            0    9210.8537    1602.1846 
   35500   0.99962594    9209.3541            0    9210.8522    1602.1846 
   35600   0.99862912    9209.3541            0    9210.8507    1602.1845 
   35700   0.99982607    9209.3541            0    9210.8525    1602.1846 
   35800    1.0003901    9209.3541            0    9210.8533    1602.1846 
   35900    1.0032699    9209.3541            0    9210.8577    1602.1847 
   36000    1.0034956    9209.3541            0     9210.858    1602.1848 
   36100    1.0002277    9209.3541            0    9210.8531    1602.1846 
   36200   0.99788227    9209.3541            0    9210.8496    1602.1845 
   36300   0.99891164    9209.3541            0    9210.8511    1602.1846 
   36400    1.0000357    9209.3541            0    9210.8528    1602.1846 
   36500    0.9989405    9209.3534            0    9210.8504    1602.1846 
   36600    1.0004014    9209.3541            0    9210.8534    1602.1846 
   36700    1.0039399    9209.3541            0    9210.8587    1602.1848 
   36800    1.0063723    9209.3541            0    9210.8623    1602.1849 
   36900    1.0010785    9209.3541            0    9210.8544    1602.1847 
   37000   0.99910312    9209.3541            0    9210.8514    1602.1846 
   37100   0.99748419    9209.3541            0     9210.849    1602.1845 
   37200   0.99890501    9209.3541            0    9210.8511    1602.1846 
   37300   0.99699274    9209.3541            0    9210.8483    1602.1845 
   37400   0.99754647    9209.3536            0    9210.8485    1602.1847 
   37500   0.99793793    9209.3541            0    9210.8497    1602.1845 
   37600    1.0002461    9209.3541            0    9210.8531    1602.1846 
   37700   0.99840187    9209.3541            0    9210.8504    1602.1845 
   37800   0.99930014    9209.3523            0    9210.8499    1602.1846 
   37900   0.99932418    9209.3541            0    9210.8518    1602.1846 
   38000   0.99973905    9209.3526            0    9210.8508    1602.1847 
   38100   0.99769546    9209.3532            0    9210.8484    1602.1845 
   38200   0.99873468    9209.3541            0    9210.8509    1602.1845 
   38300   0.99852318    9209.3541            0    9210.8505    1602.1845 
   38400    1.0005035    9209.3541            0    9210.8535    1602.1846 
   38500    1.0003082    9209.3541            0    9210.8532    1602.1846 
   38600   0.99851308    9209.3541            0    9210.8505    1602.1845 
   38700   0.99945914    9209.3541            0     9210.852    1602.1846 
   38800    0.9972046    9209.3541            0    9210.8486    1602.1845 
   38900   0.99798026    9209.3541            0    9210.8497    1602.1845 
   39000   0.99892864    9209.3541            0    9210.8512    1602.1846 
   39100   0.99952434    9209.3541            0    9210.8521    1602.1846 
   39200    1.0006898    9209.3541            0    9210.8538    1602.1846 
   39300   0.99911227    9209.3541            0    9210.8514    1602.1846 
   39400   0.99962231    9209.3541            0    9210.8522    1602.1846 
   39500    1.0003341    9209.3541            0    9210.8533    1602.1846 
   39600    1.0029391    9209.3541            0    9210.8572    1602.1847 
   39700    1.0025788    9209.3541            0    9210.8566    1602.1847 
   39800   0.99882172    9209.3541            0     9210.851    1602.1846 
   39900     0.999336    9209.3541            0    9210.8518    1602.1846 
   40000   0.99923912    9209.3541            0    9210.8516    1602.1846 
   40100    1.0002506    9209.3541            0    9210.8531    1602.1846 
   40200    1.0007983    9209.3541            0     9210.854    1602.1846 
   40300      1.00209    9209.3541            0    9210.8559    1602.1847 
   40400     1.001783    9209.3541            0    9210.8554    1602.1847 
   40500    1.0045196    9209.3541            0    9210.8595    1602.1848 
   40600   0.99879235    9209.3541            0     9210.851    1602.1846 
   40700   0.99999331    9209.3541            0    9210.8528    1602.1846 
   40800    1.0004986    9209.3541            0    9210.8535    1602.1846 
   40900   0.99767542    9209.3541            0    9210.8493    1602.1845 
   41000   0.99873147    9209.3541            0    9210.8509    1602.1845 
   41100    0.9991456    9209.3541            0    9210.8515    1602.1846 
   41200   0.99792121    9209.3541            0    9210.8496    1602.1845 
   41300   0.99735183    9209.3541            0    9210.8488    1602.1845 
   41400   0.99905144    9209.3541            0    9210.8513    1602.1846 
   41500    1.0008419    9209.3541            0     9210.854    1602.1846 
   41600    1.0033884    9209.3541            0    9210.8578    1602.1847 
   41700    0.9998249    9209.3541            0    9210.8525    1602.1846 
   41800   0.99685477    9209.3541            0     9210.848    1602.1845 
   41900   0.99847127    9209.3541            0    9210.8505    1602.1845 
   42000   0.99814421    9209.3541            0      9210.85    1602.1845 
   42100   0.99896122    9209.3541            0    9210.8512    1602.1846 
   42200   0.99863876    9209.3541            0    9210.8507    1602.1845 
   42300   0.99832006    9209.3541            0    9210.8502    1602.1845 
   42400   0.99906217    9209.3541            0    9210.8514    1602.1846 
   42500   0.99926344    9209.3541            0    9210.8517    1602.1846 
   42600   0.99830443    9209.3541            0    9210.8502    1602.1845 
   42700   0.99966957    9209.3541            0    9210.8523    1602.1846 
   42800    1.0013962    9209.3541            0    9210.8549    1602.1847 
   42900    1.0029376    9209.3541            0    9210.8572    1602.1847 
   43000    1.0003144    9209.3541            0    9210.8532    1602.1846 
   43100    0.9993512    9209.3541            0    9210.8518    1602.1846 
   43200   0.99841733    9209.3541            0    9210.8504    1602.1845 
   43300    1.0001584    9209.3541            0     9210.853    1602.1846 
   43400     1.001766    9209.3541            0    9210.8554    1602.1847 
   43500    0.9998701    9209.3541            0    9210.8526    1602.1846 
   43600    1.0000823    9209.3541            0    9210.8529    1602.1846 
   43700   0.99932311    9209.3541            0    9210.8517    1602.1846 
   43800    0.9987917    9209.3541            0     9210.851    1602.1846 
   43900    1.0006264    9209.3541            0    9210.8537    1602.1846 
   44000   0.99955487    9209.3541            0    9210.8521    1602.1846 
   44100   0.99840247    9209.3533            0    9210.8495    1602.1846 
   44200   0.99886706    9209.3524            0    9210.8494    1602.1846 
   44300   0.99808169    9209.3541            0    9210.8499    1602.1845 
   44400   0.99895196    9209.3533            0    9210.8504    1602.1846 
   44500    1.0002363    9209.3541            0    9210.8531    1602.1846 
   44600   0.99890575    9209.3541            0    9210.8511    1602.1846 
   44700    1.0015941    9209.3541            0    9210.8552    1602.1847 
   44800   0.99815075    9209.3541            0      9210.85    1602.1845 
   44900   0.99875728    9209.3541            0    9210.8509    1602.1846 
   45000   0.99919154    9209.3541            0    9210.8516    1602.1846 
   45100   0.99869608    9209.3541            0    9210.8508    1602.1845 
   45200    1.0025948    9209.3541            0    9210.8567    1602.1847 
   45300    1.0018652    9209.3541            0    9210.8556    1602.1847 
   45400   0.99845771    9209.3541            0    9210.8505    1602.1845 
   45500   0.99859994    9209.3541            0    9210.8507    1602.1845 
   45600   0.99896333    9209.3541            0    9210.8512    1602.1846 
   45700   0.99837422    9209.3541            0    9210.8503    1602.1845 
   45800    1.0003345    9209.3541            0    9210.8533    1602.1846 
   45900   0.99961726    9209.3541            0    9210.8522    1602.1846 
   46000   0.99930234    9209.3541            0    9210.8517    1602.1846 
   46100   0.99952282    9209.3541            0     9210.852    1602.1846 
   46200    0.9990267    9209.3541            0    9210.8513    1602.1846 
   46300   0.99789086    9209.3541            0    9210.8496    1602.1845 
   46400   0.99881422    9209.3541            0     9210.851    1602.1846 
   46500    0.9966179    9209.3541            0    9210.8477    1602.1845 
   46600   0.99731754    9209.3541            0    9210.8487    1602.1845 
   46700     1.000397    9209.3541            0    9210.8534    1602.1846 
   46800   0.99963245    9209.3541            0    9210.8522    1602.1846 
   46900   0.99856823    9209.3541            0    9210.8506    1602.1845 
   47000   0.99846296    9209.3541            0    9210.8505    1602.1845 
   47100    1.0022739    9209.3541            0    9210.8562    1602.1847 
   47200    1.0003987    9209.3541            0    9210.8534    1602.1846 
   47300   0.99994305    9209.3541            0    9210.8527    1602.1846 
   47400    1.0004774    9209.3541            0    9210.8535    1602.1846 
   47500    1.0017855    9209.3541            0    9210.8554    1602.1847 
   47600   0.99753321    9209.3541            0    9210.8491    1602.1845 
   47700   0.99935606    9209.3541            0    9210.8518    1602.1846 
   47800   0.99901572    9209.3541            0    9210.8513    1602.1846 
   47900   0.99800181    9209.3541            0    9210.8498    1602.1845 
   48000   0.99734909    9209.3541            0    9210.8488    1602.1845 
   48100   0.99806278    9209.3541            0    9210.8499    1602.1845 
   48200   0.99793497    9209.3541            0    9210.8497    1602.1845 
   48300   0.99869067    9209.3541            0    9210.8508    1602.1845 
   48400   0.99889779    9209.3541            0    9210.8511    1602.1846 
   48500   0.99971049    9209.3541            0    9210.8523    1602.1846 
   48600    1.0000554    9209.3541            0    9210.8528    1602.1846 
   48700    1.0010808    9209.3541            0    9210.8544    1602.1847 
   48800   0.99877989    9209.3541            0    9210.8509    1602.1846 
   48900   0.99885208    9209.3541            0     9210.851    1602.1846 
   49000    1.0000036    9209.3541            0    9210.8528    1602.1846 
   49100   0.99969998    9209.3541            0    9210.8523    1602.1846 
   49200    1.0014215    9209.3541            0    9210.8549    1602.1847 
   49300    1.0001561    9209.3541            0     9210.853    1602.1846 
   49400    1.0029287    9209.3541            0    9210.8572    1602.1847 
   49500    1.0038144    9209.3541            0    9210.8585    1602.1848 
   49600   0.99997547    9209.3541            0    9210.8527    1602.1846 
   49700   0.99970155    9209.3541            0    9210.8523    1602.1846 
   49800   0.99762286    9209.3541            0    9210.8492    1602.1845 
   49900    1.0007519    9209.3541            0    9210.8539    1602.1846 
   50000   0.99779624    9209.3541            0    9210.8495    1602.1845 
   50100   0.99769767    9209.3541            0    9210.8493    1602.1845 
   50200   0.99908809    9209.3541            0    9210.8514    1602.1846 
   50300   0.99743635    9209.3541            0    9210.8489    1602.1845 
   50400   0.99820563    9209.3541            0    9210.8501    1602.1845 
   50500    1.0011826    9209.3541            0    9210.8545    1602.1847 
   50600   0.99929682    9209.3541            0    9210.8517    1602.1846 
   50700    1.0028302    9209.3541            0     9210.857    1602.1847 
   50800   0.99899009    9209.3541            0    9210.8512    1602.1846 
   50900   0.99816761    9209.3541            0      9210.85    1602.1845 
   51000   0.99827824    9209.3541            0    9210.8502    1602.1845 
   51100   0.99795414    9209.3541            0    9210.8497    1602.1845 
   51200   0.99783264    9209.3541            0    9210.8495    1602.1845 
   51300    1.0006219    9209.3541            0    9210.8537    1602.1846 
   51400   0.99945155    9209.3541            0    9210.8519    1602.1846 
   51500   0.99912356    9209.3541            0    9210.8514    1602.1846 
   51600    1.0015147    9209.3541            0     9210.855    1602.1847 
   51700    1.0016516    9209.3541            0    9210.8552    1602.1847 
   51800   0.99989552    9209.3541            0    9210.8526    1602.1846 
   51900    1.0009425    9209.3541            0    9210.8542    1602.1846 
   52000   0.99807853    9209.3541            0    9210.8499    1602.1845 
   52100   0.99932748    9209.3541            0    9210.8518    1602.1846 
   52200    1.0032776    9209.3541            0    9210.8577    1602.1847 
   52300     1.001786    9209.3541            0    9210.8554    1602.1847 
   52400    1.0014121    9209.3541            0    9210.8549    1602.1847 
   52500   0.99862713    9209.3541            0    9210.8507    1602.1845 
   52600   0.99986045    9209.3541            0    9210.8526    1602.1846 
   52700   0.99986698    9209.3541            0    9210.8526    1602.1846 
   52800    1.0017245    9209.3541            0    9210.8553    1602.1847 
   52900    1.0016872    9209.3541            0    9210.8553    1602.1847 
   53000    1.0028832    9209.3541            0    9210.8571    1602.1847 
   53100    1.0006269    9209.3541            0    9210.8537    1602.1846 
   53200    1.0046866    9209.3541            0    9210.8598    1602.1848 
   53300    1.0011346    9209.3541            0    9210.8545    1602.1847 
   53400    1.0028438    9209.3541            0     9210.857    1602.1847 
   53500    1.0009426    9209.3541            0    9210.8542    1602.1846 
   53600   0.99987258    9209.3541            0    9210.8526    1602.1846 
   53700   0.99806086    9209.3541            0    9210.8499    1602.1845 
   53800   0.99770831    9209.3541            0    9210.8493    1602.1845 
   53900    1.0007277    9209.3541            0    9210.8539    1602.1846 
   54000    1.0009315    9209.3541            0    9210.8542    1602.1846 
   54100     1.000028    9209.3541            0    9210.8528    1602.1846 
   54200     0.998516    9209.3541            0    9210.8505    1602.1845 
   54300    1.0008264    9209.3541            0     9210.854    1602.1846 
   54400    1.0009587    9209.3541            0    9210.8542    1602.1846 
   54500   0.99883938    9209.3541            0     9210.851    1602.1846 
   54600    1.0017188    9209.3541            0    9210.8553    1602.1847 
   54700   0.99988563    9209.3541            0    9210.8526    1602.1846 
   54800   0.99810232    9209.3541            0    9210.8499    1602.1845 
   54900   0.99828604    9209.3541            0    9210.8502    1602.1845 
   55000   0.99819658    9209.3541            0    9210.8501    1602.1845 
   55100   0.99921249    9209.3539            0    9210.8514    1602.1848 
   55200   0.99936775    9209.3541            0    9210.8518    1602.1846 
   55300    1.0020641    9209.3533            0    9210.8551    1602.1848 
   55400    1.0002077    9209.3541            0    9210.8531    1602.1846 
   55500   0.99979239    9209.3524            0    9210.8507    1602.1847 
   55600   0.99917613    9209.3541            0    9210.8515    1602.1846 
   55700   0.99963051    9209.3541            0    9210.8522    1602.1846 
   55800   0.99878181    9209.3535            0    9210.8503    1602.1847 
   55900   0.99726527    9209.3541            0    9210.8487    1602.1845 
   56000    0.9994917    9209.3541            0     9210.852    1602.1846 
   56100    1.0009132    9209.3541            0    9210.8541    1602.1846 
   56200   0.99988457    9209.3541            0    9210.8526    1602.1846 
   56300   0.99963046    9209.3541            0    9210.8522    1602.1846 
   56400    1.0008292    9209.3541            0     9210.854    1602.1846 
   56500    0.9984537    9209.3541            0    9210.8504    1602.1845 
   56600   0.99794326    9209.3541            0    9210.8497    1602.1845 
   56700    0.9984606    9209.3541            0    9210.8505    1602.1845 
   56800   0.99859649    9209.3541            0    9210.8507    1602.1845 
   56900    1.0016875    9209.3541            0    9210.8553    1602.1847 
   57000   0.99969836    9209.3541            0    9210.8523    1602.1846 
   57100    1.0004614    9209.3541            0    9210.8535    1602.1846 
   57200   0.99956476    9209.3541            0    9210.8521    1602.1846 
   57300    1.0003503    9209.3541            0    9210.8533    1602.1846 
   57400    1.0008714    9209.3541            0    9210.8541    1602.1846 
   57500   0.99794405    9209.3541            0    9210.8497    1602.1845 
   57600   0.99920791    9209.3541            0    9210.8516    1602.1846 
   57700    0.9977853    9209.3541            0    9210.8494    1602.1845 
   57800   0.99822671    9209.3541            0    9210.8501    1602.1845 
   57900   0.99797864    9209.3541            0    9210.8497    1602.1845 
   58000   0.99918953    9209.3541            0    9210.8515    1602.1846 
   58100   0.99981156    9209.3541            0    9210.8525    1602.1846 
   58200   0.99963106    9209.3541            0    9210.8522    1602.1846 
   58300   0.99870901    9209.3541            0    9210.8508    1602.1845 
   58400    1.0005917    9209.3541            0    9210.8536    1602.1846 
   58500    1.0016377    9209.3541            0    9210.8552    1602.1847 
   58600    1.0020693    9209.3541            0    9210.8559    1602.1847 
   58700    1.0039602    9209.3541            0    9210.8587    1602.1848 
   58800   0.99896865    9209.3541            0    9210.8512    1602.1846 
   58900   0.99667202    9209.3541            0    9210.8478    1602.1845 
   59000   0.99950301    9209.3541            0     9210.852    1602.1846 
   59100   0.99906623    9209.3541            0    9210.8514    1602.1846 
   59200    1.0003481    9209.3541            0    9210.8533    1602.1846 
   59300    1.0002441    9209.3541            0    9210.8531    1602.1846 
   59400   0.99847537    9209.3541            0    9210.8505    1602.1845 
   59500    1.0003487    9209.3541            0    9210.8533    1602.1846 
   59600     1.001615    9209.3541            0    9210.8552    1602.1847 
   59700    1.0013823    9209.3541            0    9210.8548    1602.1847 
   59800    0.9975186    9209.3541            0     9210.849    1602.1845 
   59900   0.99855911    9209.3541            0    9210.8506    1602.1845 
   60000   0.99851389    9209.3541            0    9210.8505    1602.1845 
   60100    0.9990632    9209.3541            0    9210.8514    1602.1846 
   60200   0.99913307    9209.3541            0    9210.8515    1602.1846 
   60300    1.0010302    9209.3541            0    9210.8543    1602.1846 
   60400    0.9997635    9209.3541            0    9210.8524    1602.1846 
   60500    0.9975952    9209.3541            0    9210.8492    1602.1845 
   60600   0.99815532    9209.3541            0      9210.85    1602.1845 
   60700   0.99934327    9209.3541            0    9210.8518    1602.1846 
   60800    1.0009101    9209.3541            0    9210.8541    1602.1846 
   60900   0.99998779    9209.3541            0    9210.8527    1602.1846 
   61000   0.99774304    9209.3541            0    9210.8494    1602.1845 
   61100   0.99988267    9209.3541            0    9210.8526    1602.1846 
   61200   0.99856187    9209.3541            0    9210.8506    1602.1845 
   61300   0.99809397    9209.3541            0    9210.8499    1602.1845 
   61400    1.0001477    9209.3541            0     9210.853    1602.1846 
   61500    1.0014812    9209.3541            0     9210.855    1602.1847 
   61600    1.0017684    9209.3541            0    9210.8554    1602.1847 
   61700   0.99848201    9209.3541            0    9210.8505    1602.1845 
   61800    1.0012183    9209.3541            0    9210.8546    1602.1847 
   61900   0.99934696    9209.3541            0    9210.8518    1602.1846 
   62000   0.99915124    9209.3541            0    9210.8515    1602.1846 
   62100    1.0005058    9209.3541            0    9210.8535    1602.1846 
   62200    1.0005878    9209.3541            0    9210.8536    1602.1846 
   62300   0.99967055    9209.3541            0    9210.8523    1602.1846 
   62400   0.99951852    9209.3541            0     9210.852    1602.1846 
   62500    1.0006107    9209.3541            0    9210.8537    1602.1846 
   62600   0.99856261    9209.3541            0    9210.8506    1602.1845 
   62700   0.99889124    9209.3541            0    9210.8511    1602.1846 
   62800   0.99921505    9209.3541            0    9210.8516    1602.1846 
   62900    1.0000545    9209.3541            0    9210.8528    1602.1846 
   63000    1.0002733    9209.3541            0    9210.8532    1602.1846 
   63100     1.000524    9209.3541            0    9210.8535    1602.1846 
   63200   0.99904133    9209.3541            0    9210.8513    1602.1846 
   63300    0.9974246    9209.3541            0    9210.8489    1602.1845 
   63400   0.99972181    9209.3541            0    9210.8523    1602.1846 
   63500   0.99749166    9209.3541            0     9210.849    1602.1845 
   63600   0.99702355    9209.3541            0    9210.8483    1602.1845 
   63700   0.99934429    9209.3541            0    9210.8518    1602.1846 
   63800    1.0008772    9209.3541            0    9210.8541    1602.1846 
   63900    1.0003364    9209.3541            0    9210.8533    1602.1846 
   64000    1.0008628    9209.3541            0    9210.8541    1602.1846 
   64100   0.99819616    9209.3541            0    9210.8501    1602.1845 
   64200   0.99850487    9209.3541            0    9210.8505    1602.1845 
   64300     1.001026    9209.3541            0    9210.8543    1602.1846 
   64400   0.99766175    9209.3541            0    9210.8493    1602.1845 
   64500   0.99947147    9209.3541            0     9210.852    1602.1846 
   64600   0.99786108    9209.3541            0    9210.8496    1602.1845 
   64700    1.0017081    9209.3541            0    9210.8553    1602.1847 
   64800   0.99913812    9209.3541            0    9210.8515    1602.1846 
   64900    1.0011712    9209.3541            0    9210.8545    1602.1847 
   65000   0.99846084    9209.3541            0    9210.8505    1602.1845 
   65100    0.9999212    9209.3541            0    9210.8526    1602.1846 
   65200   0.99957058    9209.3541            0    9210.8521    1602.1846 
   65300   0.99924292    9209.3541            0    9210.8516    1602.1846 
   65400     1.000224    9209.3541            0    9210.8531    1602.1846 
   65500   0.99897115    9209.3541            0    9210.8512    1602.1846 
   65600   0.99806289    9209.3541            0    9210.8499    1602.1845 
   65700    1.0001648    9209.3541            0     9210.853    1602.1846 
   65800    1.0019378    9209.3541            0    9210.8557    1602.1847 
   65900    1.0016878    9209.3541            0    9210.8553    1602.1847 
   66000    1.0011995    9209.3541            0    9210.8546    1602.1847 
   66100    1.0024572    9209.3541            0    9210.8564    1602.1847 
   66200     1.001447    9209.3541            0    9210.8549    1602.1847 
   66300    1.0014077    9209.3541            0    9210.8549    1602.1847 
   66400    1.0019766    9209.3541            0    9210.8557    1602.1847 
   66500     1.002236    9209.3541            0    9210.8561    1602.1847 
   66600    1.0023664    9209.3541            0    9210.8563    1602.1847 
   66700    1.0002996    9209.3528            0    9210.8519    1602.1849 
   66800    1.0006234    9209.3541            0    9210.8537    1602.1846 
   66900    1.0019778    9209.3541            0    9210.8557    1602.1847 
   67000   0.99993775    9209.3541            0    9210.8527    1602.1846 
   67100    1.0014819    9209.3541            0     9210.855    1602.1847 
   67200    1.0005055    9209.3541            0    9210.8535    1602.1846 
   67300    1.0019566    9209.3541            0    9210.8557    1602.1847 
   67400    1.0023517    9209.3541            0    9210.8563    1602.1847 
   67500   0.99847221    9209.3541            0    9210.8505    1602.1845 
   67600    1.0023364    9209.3541            0    9210.8563    1602.1847 
   67700     1.001682     9209.353            0    9210.8541    1602.1856 
   67800    1.0003531    9209.3541            0    9210.8533    1602.1846 
   67900    1.0006505    9209.3541            0    9210.8537    1602.1846 
   68000    1.0010092    9209.3541            0    9210.8543    1602.1846 
   68100   0.99919007    9209.3541            0    9210.8515    1602.1846 
   68200   0.99846273    9209.3541            0    9210.8505    1602.1845 
   68300    1.0018818    9209.3541            0    9210.8556    1602.1847 
   68400    1.0026502    9209.3541            0    9210.8567    1602.1847 
   68500    1.0012902    9209.3541            0    9210.8547    1602.1847 
   68600    1.0000078    9209.3541            0    9210.8528    1602.1846 
   68700     1.000393    9209.3541            0    9210.8534    1602.1846 
   68800    1.0018696    9209.3541            0    9210.8556    1602.1847 
   68900    1.0003566    9209.3541            0    9210.8533    1602.1846 
   69000   0.99911069    9209.3541            0    9210.8514    1602.1846 
   69100   0.99867114    9209.3541            0    9210.8508    1602.1845 
   69200     1.001109    9209.3541            0    9210.8544    1602.1847 
   69300   0.99763554    9209.3541            0    9210.8492    1602.1845 
   69400   0.99790813    9209.3541            0    9210.8496    1602.1845 
   69500   0.99901854    9209.3541            0    9210.8513    1602.1846 
   69600   0.99822459    9209.3541            0    9210.8501    1602.1845 
   69700   0.99983143    9209.3525            0    9210.8509    1602.1847 
   69800    1.0010173    9209.3541            0    9210.8543    1602.1846 
   69900    1.0005214    9209.3541            0    9210.8535    1602.1846 
   70000   0.99756732    9209.3541            0    9210.8491    1602.1845 
   70100   0.99908263    9209.3541            0    9210.8514    1602.1846 
   70200    1.0000083     9209.353            0    9210.8517    1602.1849 
   70300    1.0007865    9209.3541            0    9210.8539    1602.1846 
   70400    1.0019049    9209.3541            0    9210.8556    1602.1847 
   70500    1.0021535    9209.3541            0     9210.856    1602.1847 
   70600   0.99944476    9209.3541            0    9210.8519    1602.1846 
   70700    1.0013499    9209.3541            0    9210.8548    1602.1847 
   70800    1.0012846    9209.3541            0    9210.8547    1602.1847 
   70900     1.001367    9209.3541            0    9210.8548    1602.1847 
   71000   0.99963436    9209.3541            0    9210.8522    1602.1846 
   71100    1.0023853    9209.3541            0    9210.8563    1602.1847 
   71200   0.99984469    9209.3541            0    9210.8525    1602.1846 
   71300    1.0006169    9209.3541            0    9210.8537    1602.1846 
   71400   0.99824769    9209.3541            0    9210.8501    1602.1845 
   71500      0.99872    9209.3541            0    9210.8508    1602.1845 
   71600   0.99985937    9209.3541            0    9210.8526    1602.1846 
   71700   0.99744032    9209.3541            0    9210.8489    1602.1845 
   71800   0.99786032    9209.3541            0    9210.8496    1602.1845 
   71900   0.99916828    9209.3541            0    9210.8515    1602.1846 
   72000    1.0006632    9209.3541            0    9210.8538    1602.1846 
   72100     1.001695    9209.3541            0    9210.8553    1602.1847 
   72200    1.0047394    9209.3541            0    9210.8599    1602.1848 
   72300    1.0012237    9209.3541            0    9210.8546    1602.1847 
   72400   0.99795123    9209.3541            0    9210.8497    1602.1845 
   72500   0.99727423    9209.3541            0    9210.8487    1602.1845 
   72600    1.0022121    9209.3541            0    9210.8561    1602.1847 
   72700    1.0017741    9209.3541            0    9210.8554    1602.1847 
   72800   0.99938216    9209.3541            0    9210.8518    1602.1846 
   72900     1.001414    9209.3541            0    9210.8549    1602.1847 
   73000    1.0013624    9209.3541            0    9210.8548    1602.1847 
   73100     1.001652    9209.3541            0    9210.8552    1602.1847 
   73200    1.0010566    9209.3541            0    9210.8543    1602.1846 
   73300    1.0013575    9209.3541            0    9210.8548    1602.1847 
   73400    1.0006475    9209.3541            0    9210.8537    1602.1846 
   73500      1.00034    9209.3541            0    9210.8533    1602.1846 
   73600   0.99887255    9209.3541            0    9210.8511    1602.1846 
   73700   0.99896042    9209.3541            0    9210.8512    1602.1846 
   73800    1.0002777    9209.3541            0    9210.8532    1602.1846 
   73900    1.0027924    9209.3541            0    9210.8569    1602.1847 
   74000   0.99980875    9209.3541            0    9210.8525    1602.1846 
   74100     1.001509    9209.3541            0     9210.855    1602.1847 
   74200    1.0018143    9209.3541            0    9210.8555    1602.1847 
   74300      1.00106    9209.3541            0    9210.8544    1602.1846 
   74400     1.000114    9209.3541            0    9210.8529    1602.1846 
   74500   0.99882249    9209.3541            0     9210.851    1602.1846 
   74600    0.9974786    9209.3541            0     9210.849    1602.1845 
   74700    1.0000578    9209.3541            0    9210.8528    1602.1846 
   74800   0.99919316    9209.3541            0    9210.8516    1602.1846 
   74900     1.003154    9209.3541            0    9210.8575    1602.1847 
   75000    1.0009636    9209.3541            0    9210.8542    1602.1846 
   75100    1.0009046    9209.3541            0    9210.8541    1602.1846 
   75200    1.0024453    9209.3541            0    9210.8564    1602.1847 
   75300   0.99825742    9209.3541            0    9210.8502    1602.1845 
   75400   0.99931567    9209.3541            0    9210.8517    1602.1846 
   75500    0.9999628    9209.3541            0    9210.8527    1602.1846 
   75600   0.99779379    9209.3541            0    9210.8495    1602.1845 
   75700    1.0022962    9209.3541            0    9210.8562    1602.1847 
   75800    1.0032389    9209.3541            0    9210.8576    1602.1847 
   75900    1.0015349    9209.3541            0    9210.8551    1602.1847 
   76000    1.0023778    9209.3541            0    9210.8563    1602.1847 
   76100     1.002281    9209.3541            0    9210.8562    1602.1847 
   76200    1.0039034    9209.3541            0    9210.8586    1602.1848 
   76300    1.0013088    9209.3541            0    9210.8547    1602.1847 
   76400   0.99932412    9209.3541            0    9210.8518    1602.1846 
   76500   0.99887204    9209.3541            0    9210.8511    1602.1846 
   76600    0.9999268    9209.3541            0    9210.8527    1602.1846 
   76700    1.0005638    9209.3541            0    9210.8536    1602.1846 
   76800   0.99974215    9209.3541            0    9210.8524    1602.1846 
   76900    1.0012393    9209.3541            0    9210.8546    1602.1847 
   77000    1.0013727    9209.3541            0    9210.8548    1602.1847 
   77100    1.0019395    9209.3541            0    9210.8557    1602.1847 
   77200    1.0007983    9209.3541            0     9210.854    1602.1846 
   77300   0.99973658    9209.3541            0    9210.8524    1602.1846 
   77400    1.0001589    9209.3541            0     9210.853    1602.1846 
   77500   0.99984421    9209.3541            0    9210.8525    1602.1846 
   77600    1.0014192    9209.3541            0    9210.8549    1602.1847 
   77700    1.0012599    9209.3541            0    9210.8547    1602.1847 
   77800   0.99882189    9209.3541            0     9210.851    1602.1846 
   77900    1.0007684    9209.3541            0    9210.8539    1602.1846 
   78000   0.99996732    9209.3541            0    9210.8527    1602.1846 
   78100    1.0006423    9209.3541            0    9210.8537    1602.1846 
   78200    1.0000579    9209.3541            0    9210.8528    1602.1846 
   78300   0.99986022    9209.3541            0    9210.8526    1602.1846 
   78400   0.99873069    9209.3541            0    9210.8509    1602.1845 
   78500   0.99872477    9209.3541            0    9210.8509    1602.1845 
   78600    1.0007692    9209.3541            0    9210.8539    1602.1846 
   78700   0.99699923    9209.3541            0    9210.8483    1602.1845 
   78800   0.99789138    9209.3541            0    9210.8496    1602.1845 
   78900   0.99979177    9209.3541            0    9210.8525    1602.1846 
   79000   0.99854392    9209.3541            0    9210.8506    1602.1845 
   79100   0.99894399    9209.3541            0    9210.8512    1602.1846 
   79200    1.0004116    9209.3541            0    9210.8534    1602.1846 
   79300    1.0016055    9209.3541            0    9210.8552    1602.1847 
   79400    1.0013947    9209.3541            0    9210.8549    1602.1847 
   79500   0.99892885    9209.3541            0    9210.8512    1602.1846 
   79600   0.99952995    9209.3541            0    9210.8521    1602.1846 
   79700   0.99989817    9209.3541            0    9210.8526    1602.1846 
   79800    1.0007255    9209.3541            0    9210.8539    1602.1846 
   79900   0.99886259    9209.3541            0    9210.8511    1602.1846 
   80000   0.99781185    9209.3541            0    9210.8495    1602.1845 
Loop time of 14.5592 on 1 procs for 80000 steps with 1104 atoms

Performance: 2373758.774 tau/day, 5494.812 timesteps/s
88.4% CPU use with 1 MPI tasks x 1 OpenMP threads

MPI task timing breakdown:
Section |  min time  |  avg time  |  max time  |%varavg| %total
---------------------------------------------------------------
Pair    | 7.6237     | 7.6237     | 7.6237     |   0.0 | 52.36
Bond    | 0.0039859  | 0.0039859  | 0.0039859  |   0.0 |  0.03
Neigh   | 2.2257     | 2.2257     | 2.2257     |   0.0 | 15.29
Comm    | 0.32631    | 0.32631    | 0.32631    |   0.0 |  2.24
Output  | 3.1935     | 3.1935     | 3.1935     |   0.0 | 21.93
Modify  | 0.71147    | 0.71147    | 0.71147    |   0.0 |  4.89
Other   |            | 0.4744     |            |       |  3.26

Nlocal:        1104.00 ave        1104 max        1104 min
Histogram: 1 0 0 0 0 0 0 0 0 0
Nghost:        136.000 ave         136 max         136 min
Histogram: 1 0 0 0 0 0 0 0 0 0
Neighs:        6162.00 ave        6162 max        6162 min
Histogram: 1 0 0 0 0 0 0 0 0 0

Total # of neighbors = 6162
Ave neighs/atom = 5.5815217
Ave special neighs/atom = 0.0000000
Neighbor list builds = 4000
Dangerous builds not checked




Total wall time: 0:00:14
