comment

161 atoms
169 bonds
158 angles
0 dihedrals
9 impropers

13 atom types
15 bond types
6 angle types
0 dihedral types
2 improper types

-30 30 xlo xhi
-30 30 ylo yhi
-170 170 zlo zhi

Masses

1 72.0
2 72.0
3 72.0
4 45.0
5 72.0
6 72.0
7 72.0
8 72.0
9 45.0
10 45.0
11 72.0
12 45.0
13 72.0

PairIJ Coeffs

1 1 1.19503 4.699999999999999 5.263999999999999
1 2 1.3384336 4.699999999999999 5.263999999999999
1 3 0.478012 4.699999999999999 5.263999999999999
1 4 0.7409186 4.699999999999999 5.263999999999999
1 5 0.836521 4.699999999999999 5.263999999999999
1 6 0.5497137999999999 4.699999999999999 5.263999999999999
1 7 1.19503 4.699999999999999 5.263999999999999
1 8 1.3384336 4.699999999999999 5.263999999999999
1 9 0.6453162 4.699999999999999 5.263999999999999
1 10 1.19503 4.699999999999999 5.263999999999999
1 11 1.3384336 4.699999999999999 5.263999999999999
1 12 0.956024 4.699999999999999 5.263999999999999
1 13 0.7409186 4.699999999999999 5.263999999999999
2 2 1.3384336 4.699999999999999 5.263999999999999
2 3 0.478012 4.699999999999999 5.263999999999999
2 4 0.7409186 4.699999999999999 5.263999999999999
2 5 0.836521 4.699999999999999 5.263999999999999
2 6 0.6453162 4.699999999999999 5.263999999999999
2 7 1.3384336 4.699999999999999 5.263999999999999
2 8 1.3384336 4.699999999999999 5.263999999999999
2 9 0.6453162 4.699999999999999 5.263999999999999
2 10 1.3384336 4.699999999999999 5.263999999999999
2 11 1.3384336 4.699999999999999 5.263999999999999
2 12 1.19503 4.699999999999999 5.263999999999999
2 13 0.7409186 4.699999999999999 5.263999999999999
3 3 0.836521 4.699999999999999 5.263999999999999
3 4 0.7409186 4.699999999999999 5.263999999999999
3 5 0.6453162 4.699999999999999 5.263999999999999
3 6 0.836521 4.699999999999999 5.263999999999999
3 7 0.6453162 4.699999999999999 5.263999999999999
3 8 0.478012 4.699999999999999 5.263999999999999
3 9 0.7409186 4.699999999999999 5.263999999999999
3 10 0.6453162 4.699999999999999 5.263999999999999
3 11 0.478012 4.699999999999999 5.263999999999999
3 12 0.6453162 4.699999999999999 5.263999999999999
3 13 0.7409186 4.699999999999999 5.263999999999999
4 4 0.62739075 4.3 4.816
4 5 0.836521 4.699999999999999 5.263999999999999
4 6 0.836521 4.699999999999999 5.263999999999999
4 7 0.836521 4.699999999999999 5.263999999999999
4 8 0.7409186 4.699999999999999 5.263999999999999
4 9 0.62739075 4.3 4.816
4 10 0.62739075 4.3 4.816
4 11 0.7409186 4.699999999999999 5.263999999999999
4 12 0.62739075 4.3 4.816
4 13 0.836521 4.699999999999999 5.263999999999999
5 5 0.836521 4.699999999999999 5.263999999999999
5 6 0.836521 4.699999999999999 5.263999999999999
5 7 0.956024 4.699999999999999 5.263999999999999
5 8 0.836521 4.699999999999999 5.263999999999999
5 9 0.836521 4.699999999999999 5.263999999999999
5 10 0.956024 4.699999999999999 5.263999999999999
5 11 0.836521 4.699999999999999 5.263999999999999
5 12 0.836521 4.699999999999999 5.263999999999999
5 13 0.836521 4.699999999999999 5.263999999999999
6 6 0.836521 4.699999999999999 5.263999999999999
6 7 0.836521 4.699999999999999 5.263999999999999
6 8 0.6453162 4.699999999999999 5.263999999999999
6 9 0.836521 4.699999999999999 5.263999999999999
6 10 0.836521 4.699999999999999 5.263999999999999
6 11 0.5497137999999999 4.699999999999999 5.263999999999999
6 12 0.6453162 4.699999999999999 5.263999999999999
6 13 0.836521 4.699999999999999 5.263999999999999
7 7 1.075527 4.699999999999999 5.263999999999999
7 8 1.075527 4.699999999999999 5.263999999999999
7 9 0.836521 4.699999999999999 5.263999999999999
7 10 1.075527 4.699999999999999 5.263999999999999
7 11 1.19503 4.699999999999999 5.263999999999999
7 12 1.075527 4.699999999999999 5.263999999999999
7 13 0.836521 4.699999999999999 5.263999999999999
8 8 1.19503 4.699999999999999 5.263999999999999
8 9 0.6453162 4.699999999999999 5.263999999999999
8 10 1.075527 4.699999999999999 5.263999999999999
8 11 1.3384336 4.699999999999999 5.263999999999999
8 12 0.956024 4.699999999999999 5.263999999999999
8 13 0.7409186 4.699999999999999 5.263999999999999
9 9 0.62739075 4.3 4.816
9 10 0.62739075 4.3 4.816
9 11 0.6453162 4.699999999999999 5.263999999999999
9 12 0.5556889500000001 4.3 4.816
9 13 0.836521 4.699999999999999 5.263999999999999
10 10 0.80664525 4.3 4.816
10 11 1.19503 4.699999999999999 5.263999999999999
10 12 0.80664525 4.3 4.816
10 13 0.836521 4.699999999999999 5.263999999999999
11 11 1.19503 4.699999999999999 5.263999999999999
11 12 1.19503 4.699999999999999 5.263999999999999
11 13 0.7409186 4.699999999999999 5.263999999999999
12 12 0.7170179999999999 4.3 4.816
12 13 0.836521 4.699999999999999 5.263999999999999
13 13 0.836521 4.699999999999999 5.263999999999999

Bond Coeffs

1 1.4937875 3.5
2 8.962725 3.3000000000000003
3 8.962725 3.1
4 5.97515 3.3000000000000003
5 5.97515 3.4000000000000004
6 5.97515 2.8000000000000003
7 5.97515 4.0
8 8.962725 3.0
9 5.97515 3.2
10 8.962725 3.2
11 5.97515 3.0
12 2.987575 4.0
13 11.9503 2.7
14 11.9503 2.6
15 11.9503 3.1

Angle Coeffs

1 2.39006 127
2 2.987575 100
3 5.97515 150
4 2.987575 180
5 5.97515 210
6 5.97515 90


Improper Coeffs

1 5.97515 0
2 23.9006 0

Atoms

1 1 1 1.0000 0.0 0.0 -48.726
2 1 2 0.0000 0.836 -0.732 -45.176
3 1 3 0.0000 -1.927 0.984 -44.362
4 1 2 0.0000 -4.536 2.198 -45.131
5 1 4 0.0000 3.742 -1.016 -43.503
6 1 4 0.0000 5.636 0.607 -44.309
7 1 4 0.0000 0.666 -3.661 -41.257
8 1 2 0.0000 -2.107 -2.516 -41.942
9 1 2 0.0000 -4.741 -3.406 -42.937
10 1 5 0.0000 2.707 -5.593 -42.61
11 1 1 1.0000 4.433 -6.281 -40.063
12 1 2 0.0000 6.543 -4.676 -38.739
13 1 6 0.0000 8.79 -4.454 -36.419
14 1 1 1.0000 2.019 -7.704 -38.678
15 1 2 0.0000 0.483 -5.066 -37.029
16 1 7 0.0000 0.641 -2.793 -35.34
17 1 2 0.0000 1.637 -9.94 -40.802
18 1 2 0.0000 -0.376 -8.859 -42.751
19 1 8 0.0000 4.513 -11.117 -40.653
20 1 8 0.0000 7.088 -10.213 -41.36
21 1 8 0.0000 7.916 -11.67 -43.073
22 1 6 0.0000 9.475 -11.708 -41.497
23 1 2 0.0000 4.656 -11.777 -37.52
24 1 2 0.0000 5.529 -9.636 -36.152
25 1 4 0.0000 2.15 -13.531 -37.497
26 1 4 0.0000 -0.587 -10.317 -36.821
27 1 4 0.0000 2.19 -15.357 -40.699
28 1 2 0.0000 -0.567 -14.613 -41.062
29 1 7 0.0000 -3.211 -13.201 -42.122
30 1 2 0.0000 5.549 -15.476 -42.044
31 1 9 0.0000 5.312 -14.415 -44.683
32 1 9 0.0000 7.987 -15.222 -39.512
33 1 10 0.0000 8.157 -18.827 -39.414
34 1 2 0.0000 4.858 -18.515 -39.295
35 1 7 0.0000 8.817 -18.992 -42.905
36 1 2 0.0000 6.295 -20.604 -42.471
37 1 11 -1.0000 12.814 -13.732 -44.0
38 1 8 0.0000 14.856 -14.794 -42.688
39 1 2 0.0000 13.592 -9.931 -43.128
40 1 2 0.0000 11.513 -9.113 -43.502
41 1 2 0.0000 16.31 -9.881 -42.01
42 1 6 0.0000 17.362 -11.014 -38.164
43 1 1 1.0000 19.131 -8.332 -41.8
44 1 2 0.0000 19.753 -6.016 -40.786
45 1 2 0.0000 22.309 -5.518 -38.938
46 1 2 0.0000 21.428 -9.726 -43.276
47 1 6 0.0000 22.674 -12.509 -42.502
48 1 1 1.0000 21.621 -15.489 -40.953
49 1 2 0.0000 24.416 -15.629 -39.776
50 1 2 0.0000 26.97 -16.511 -38.727
51 1 3 0.0000 16.439 -17.958 -39.299
52 1 2 0.0000 16.683 -15.673 -37.279
53 1 7 0.0000 17.918 -13.788 -35.243
54 1 2 0.0000 14.109 -18.752 -41.534
55 1 9 0.0000 12.446 -19.866 -39.948
56 1 12 0.0000 13.796 -19.86 -44.403
57 1 4 0.0000 13.361 -17.956 -46.842
58 1 4 0.0000 12.096 -19.483 -48.036
59 1 2 0.0000 14.47 -15.065 -48.216
60 1 6 0.0000 16.616 -13.092 -46.699
61 1 1 1.0000 13.134 -11.562 -48.748
62 1 2 0.0000 10.143 -13.026 -48.194
63 1 11 -1.0000 16.851 -8.768 -51.485
64 1 2 0.0000 14.773 -9.708 -53.995
65 1 11 -1.0000 13.081 -12.243 -52.826
66 1 2 0.0000 14.135 -7.349 -55.7
67 1 7 0.0000 11.484 -6.261 -54.161
68 1 2 0.0000 9.674 -7.829 -54.401
69 1 3 0.0000 9.294 -6.673 -52.488
70 1 2 0.0000 15.462 -7.833 -59.091
71 1 13 0.0000 15.954 -10.929 -58.922
72 1 2 0.0000 17.843 -9.666 -56.696
73 1 11 -1.0000 18.63 -6.612 -54.858
74 1 2 0.0000 16.717 -14.215 -59.009
75 1 9 0.0000 17.346 -13.699 -62.129
76 1 9 0.0000 17.67 -11.686 -64.309
77 1 10 0.0000 16.299 -17.496 -58.461
78 1 2 0.0000 14.06 -18.603 -58.376
79 1 3 0.0000 18.303 -18.97 -55.894
80 1 2 0.0000 20.524 -16.342 -55.158
81 1 11 -1.0000 21.008 -16.579 -58.588
82 1 2 0.0000 20.13 -16.568 -52.119
83 1 2 0.0000 21.056 -17.737 -49.378
84 1 8 0.0000 22.859 -16.403 -49.279
85 1 6 0.0000 19.836 -20.536 -48.037
86 1 2 0.0000 16.825 -21.273 -48.268
87 1 6 0.0000 14.559 -23.199 -46.919
88 1 1 1.0000 14.611 -25.263 -48.234
89 1 2 0.0000 12.444 -24.918 -47.712
90 1 6 0.0000 14.65 -22.519 -50.954
91 1 1 1.0000 16.757 -22.693 -52.539
92 1 2 0.0000 13.403 -23.122 -53.948
93 1 9 0.0000 11.673 -20.458 -53.696
94 1 9 0.0000 12.803 -18.358 -53.439
95 1 10 0.0000 11.342 -17.722 -51.656
96 1 2 0.0000 11.865 -25.133 -55.943
97 1 3 0.0000 10.082 -26.521 -54.6
98 1 8 0.0000 12.907 -26.403 -59.243
99 1 6 0.0000 15.086 -28.617 -58.15
100 1 2 0.0000 9.938 -25.626 -60.832
101 1 2 0.0000 11.396 -22.387 -60.184
102 1 7 0.0000 10.086 -20.557 -58.392
103 1 2 0.0000 14.577 -22.324 -60.03
104 1 6 0.0000 16.189 -23.246 -57.519
105 1 1 1.0000 18.922 -24.144 -56.959
106 1 2 0.0000 15.217 -23.521 -63.089
107 1 13 0.0000 16.424 -26.212 -61.764
108 1 2 0.0000 13.19 -20.921 -64.332
109 1 3 0.0000 11.593 -23.429 -64.466
110 1 2 0.0000 11.878 -26.371 -65.995
111 1 4 0.0000 14.433 -17.866 -63.809
112 1 4 0.0000 12.729 -16.166 -62.047
113 1 4 0.0000 10.011 -17.016 -62.941
114 1 8 0.0000 11.745 -13.12 -61.15
115 1 2 0.0000 13.098 -11.285 -62.687
116 1 2 0.0000 11.866 -11.071 -58.371
117 1 3 0.0000 11.649 -13.616 -56.516
118 1 2 0.0000 12.436 -15.552 -56.158
119 1 6 0.0000 9.011 -14.918 -56.312
120 1 1 1.0000 9.723 -16.943 -55.786
121 1 2 0.0000 8.918 -9.195 -57.965
122 1 6 0.0000 9.093 -8.799 -61.029
123 1 1 1.0000 8.632 -7.187 -62.833
124 1 2 0.0000 5.997 -8.003 -57.203
125 1 6 0.0000 6.525 -3.885 -56.204
126 1 1 1.0000 4.233 -9.694 -59.32
127 1 2 0.0000 5.162 -6.475 -61.122
128 1 7 0.0000 5.382 -12.492 -58.714
129 1 2 0.0000 7.666 -12.53 -60.077
130 1 11 -1.0000 5.086 -12.265 -55.408
131 1 2 0.0000 7.431 -11.931 -53.419
132 1 5 0.0000 2.067 -11.946 -55.271
133 1 1 1.0000 -0.026 -9.167 -54.799
134 1 2 0.0000 1.427 -14.803 -56.195
135 1 11 -1.0000 1.139 -14.514 -60.531
136 1 2 0.0000 2.927 -16.277 -53.96
137 1 11 -1.0000 5.565 -16.149 -52.96
138 1 2 0.0000 6.271 -18.451 -52.857
139 1 3 0.0000 7.114 -18.163 -50.645
140 1 2 0.0000 1.178 -14.855 -51.441
141 1 3 0.0000 3.294 -12.601 -50.599
142 1 8 0.0000 -1.42 -16.741 -51.856
143 1 2 0.0000 -3.605 -16.525 -55.202
144 1 9 0.0000 0.329 -19.585 -52.61
145 1 9 0.0000 -1.491 -21.85 -51.725
146 1 10 0.0000 2.828 -21.96 -52.99
147 1 2 0.0000 3.296 -20.876 -50.669
148 1 3 0.0000 1.283 -24.613 -54.201
149 1 2 0.0000 -0.314 -26.746 -52.412
150 1 6 0.0000 -1.657 -28.206 -50.028
151 1 1 1.0000 0.203 -23.123 -56.721
152 1 2 0.0000 -2.691 -22.739 -55.959
153 1 6 0.0000 -4.945 -22.33 -57.22
154 1 1 1.0000 3.007 -21.71 -57.77
155 1 8 0.0000 3.587 -19.094 -57.415
156 1 2 0.0000 5.972 -18.718 -57.424
157 1 7 0.0000 5.676 -17.224 -59.311
158 1 2 0.0000 4.608 -24.437 -57.114
159 1 2 0.0000 7.324 -23.118 -56.436
160 1 11 -1.0000 5.412 -27.289 -58.511
161 1 11 -1.0000 4.963 -26.199 -60.596

Bonds

1 1 1 2
2 1 2 4
3 1 4 8
4 1 8 9
5 1 9 12
6 1 12 15
7 1 15 17
8 1 17 18
9 1 18 20
10 1 20 21
11 1 21 23
12 1 23 24
13 1 24 28
14 1 28 30
15 1 30 34
16 1 34 36
17 1 36 38
18 1 38 39
19 1 39 41
20 1 41 44
21 1 44 46
22 1 46 49
23 1 49 50
24 1 50 52
25 1 52 54
26 1 54 59
27 1 59 62
28 1 62 64
29 1 64 66
30 1 66 68
31 1 68 70
32 1 70 72
33 1 72 74
34 1 74 78
35 1 78 80
36 1 80 82
37 1 82 84
38 1 84 86
39 1 86 89
40 1 89 92
41 1 92 96
42 1 96 98
43 1 98 100
44 1 100 101
45 1 101 103
46 1 103 106
47 1 106 108
48 1 108 110
49 1 110 114
50 1 114 115
51 1 115 116
52 1 116 118
53 1 118 121
54 1 121 124
55 1 124 127
56 1 127 129
57 1 129 131
58 1 131 134
59 1 134 136
60 1 136 138
61 1 138 140
62 1 140 142
63 1 142 143
64 1 143 147
65 1 147 149
66 1 149 152
67 1 152 155
68 1 155 156
69 1 156 158
70 1 158 160
71 2 2 3
72 3 4 5
73 4 9 10
74 5 10 11
75 4 12 13
76 6 13 14
77 7 18 19
78 8 21 22
79 3 24 25
80 9 30 31
81 10 36 37
82 9 39 40
83 4 41 42
84 6 42 43
85 9 44 45
86 4 46 47
87 6 47 48
88 11 54 55
89 4 59 60
90 6 60 61
91 7 62 63
92 7 64 65
93 2 68 69
94 12 70 71
95 7 72 73
96 9 74 75
97 2 78 79
98 7 80 81
99 9 82 83
100 8 84 85
101 4 86 87
102 6 87 88
103 4 89 90
104 6 90 91
105 9 92 93
106 8 98 99
107 4 103 104
108 6 104 105
109 12 106 107
110 3 110 111
111 4 118 119
112 6 119 120
113 4 121 122
114 6 122 123
115 4 124 125
116 6 125 126
117 7 129 130
118 4 131 132
119 5 132 133
120 7 134 135
121 10 136 137
122 2 138 139
123 9 143 144
124 2 147 148
125 4 149 150
126 6 150 151
127 4 152 153
128 6 153 154
129 9 158 159
130 7 160 161
131 13 5 6
132 13 5 7
133 13 6 7
134 14 15 16
135 13 25 26
136 13 25 27
137 13 26 27
138 14 28 29
139 13 31 32
140 13 31 33
141 13 32 33
142 14 34 35
143 15 50 51
144 14 52 53
145 13 55 56
146 13 55 57
147 13 56 57
148 13 56 58
149 13 57 58
150 14 66 67
151 13 75 76
152 13 75 77
153 13 76 77
154 13 93 94
155 13 93 95
156 13 94 95
157 15 96 97
158 14 101 102
159 15 108 109
160 13 111 112
161 13 111 113
162 13 112 113
163 15 116 117
164 14 127 128
165 15 140 141
166 13 144 145
167 13 144 146
168 13 145 146
169 14 156 157

Angles

1 1 1 2 4
2 1 2 4 8
3 1 4 8 9
4 1 8 9 12
5 1 9 12 15
6 1 12 15 17
7 1 15 17 18
8 1 17 18 20
9 1 18 20 21
10 1 20 21 23
11 1 21 23 24
12 1 23 24 28
13 1 24 28 30
14 1 28 30 34
15 1 30 34 36
16 1 34 36 38
17 1 36 38 39
18 1 38 39 41
19 1 39 41 44
20 1 41 44 46
21 1 44 46 49
22 1 46 49 50
23 1 49 50 52
24 1 50 52 54
25 1 52 54 59
26 1 54 59 62
27 1 59 62 64
28 1 62 64 66
29 1 64 66 68
30 1 66 68 70
31 1 68 70 72
32 1 70 72 74
33 1 72 74 78
34 1 74 78 80
35 1 78 80 82
36 1 80 82 84
37 1 82 84 86
38 1 84 86 89
39 1 86 89 92
40 1 89 92 96
41 1 92 96 98
42 1 96 98 100
43 1 98 100 101
44 1 100 101 103
45 1 101 103 106
46 1 103 106 108
47 1 106 108 110
48 1 108 110 114
49 1 110 114 115
50 1 114 115 116
51 1 115 116 118
52 1 116 118 121
53 1 118 121 124
54 1 121 124 127
55 1 124 127 129
56 1 127 129 131
57 1 129 131 134
58 1 131 134 136
59 1 134 136 138
60 1 136 138 140
61 1 138 140 142
62 1 140 142 143
63 1 142 143 147
64 1 143 147 149
65 1 147 149 152
66 1 149 152 155
67 1 152 155 156
68 1 155 156 158
69 1 156 158 160
70 2 1 2 3
71 2 2 4 5
72 2 8 9 10
73 2 9 12 13
74 2 12 15 16
75 2 17 18 19
76 2 20 21 22
77 2 23 24 25
78 2 24 28 29
79 2 28 30 31
80 2 30 34 35
81 2 34 36 37
82 2 38 39 40
83 2 39 41 42
84 2 41 44 45
85 2 44 46 47
86 2 49 50 51
87 2 50 52 53
88 2 52 54 55
89 2 54 59 60
90 2 59 62 63
91 2 62 64 65
92 2 64 66 67
93 2 66 68 69
94 2 68 70 71
95 2 70 72 73
96 2 72 74 75
97 2 74 78 79
98 2 78 80 81
99 2 80 82 83
100 2 82 84 85
101 2 84 86 87
102 2 86 89 90
103 2 89 92 93
104 2 92 96 97
105 2 96 98 99
106 2 100 101 102
107 2 101 103 104
108 2 103 106 107
109 2 106 108 109
110 2 108 110 111
111 2 115 116 117
112 2 116 118 119
113 2 118 121 122
114 2 121 124 125
115 2 124 127 128
116 2 127 129 130
117 2 129 131 132
118 2 131 134 135
119 2 134 136 137
120 2 136 138 139
121 2 138 140 141
122 2 142 143 144
123 2 143 147 148
124 2 147 149 150
125 2 149 152 153
126 2 155 156 157
127 2 156 158 159
128 2 158 160 161
129 3 4 5 6
130 3 4 5 7
131 4 9 10 11
132 4 12 13 14
133 3 24 25 26
134 3 24 25 27
135 3 30 31 32
136 3 30 31 33
137 4 41 42 43
138 4 46 47 48
139 5 54 55 56
140 6 54 55 57
141 4 59 60 61
142 3 74 75 76
143 3 74 75 77
144 4 86 87 88
145 4 89 90 91
146 3 92 93 94
147 3 92 93 95
148 4 103 104 105
149 3 110 111 112
150 3 110 111 113
151 4 118 119 120
152 4 121 122 123
153 4 124 125 126
154 4 131 132 133
155 3 143 144 145
156 3 143 144 146
157 4 149 150 151
158 4 152 153 154


Impropers

1 1 4 6 7 5
2 1 24 26 27 25
3 1 30 32 33 31
4 1 54 56 57 55
5 2 55 56 58 57
6 1 74 76 77 75
7 1 92 94 95 93
8 1 110 112 113 111
9 1 143 145 146 144

