length - 20.0, depth- 20.0, width- 20.0, dia- 3.0, dia big- 1.0, dia small - 1.0

1318 atoms
99 bonds

2 atom types
1 bond types

-10.5 10.5 xlo xhi
-10.5 10.5 ylo yhi
-150.0 150.0 zlo zhi

Atoms

1 1 1 0 1.5 0.0 -10.0
2 1 1 0 1.5 0.0 -9.0
3 1 1 0 1.5 0.0 -8.0
4 1 1 0 1.5 0.0 -7.0
5 1 1 0 1.5 0.0 -6.0
6 1 1 0 1.5 0.0 -5.0
7 1 1 0 1.5 0.0 -4.0
8 1 1 0 1.5 0.0 -3.0
9 1 1 0 1.5 0.0 -2.0
10 1 1 0 1.5 0.0 -1.0
11 1 1 0 1.5 0.0 0.0
12 1 1 0 1.5 0.0 1.0
13 1 1 0 1.5 0.0 2.0
14 1 1 0 1.5 0.0 3.0
15 1 1 0 1.5 0.0 4.0
16 1 1 0 1.5 0.0 5.0
17 1 1 0 1.5 0.0 6.0
18 1 1 0 1.5 0.0 7.0
19 1 1 0 1.5 0.0 8.0
20 1 1 0 1.5 0.0 9.0
21 1 1 0 1.5 0.0 10.0
22 1 1 0 1.4166666666666665 0.4930066485916348 -10.0
23 1 1 0 1.4166666666666665 0.4930066485916348 -9.0
24 1 1 0 1.4166666666666665 0.4930066485916348 -8.0
25 1 1 0 1.4166666666666665 0.4930066485916348 -7.0
26 1 1 0 1.4166666666666665 0.4930066485916348 -6.0
27 1 1 0 1.4166666666666665 0.4930066485916348 -5.0
28 1 1 0 1.4166666666666665 0.4930066485916348 -4.0
29 1 1 0 1.4166666666666665 0.4930066485916348 -3.0
30 1 1 0 1.4166666666666665 0.4930066485916348 -2.0
31 1 1 0 1.4166666666666665 0.4930066485916348 -1.0
32 1 1 0 1.4166666666666665 0.4930066485916348 0.0
33 1 1 0 1.4166666666666665 0.4930066485916348 1.0
34 1 1 0 1.4166666666666665 0.4930066485916348 2.0
35 1 1 0 1.4166666666666665 0.4930066485916348 3.0
36 1 1 0 1.4166666666666665 0.4930066485916348 4.0
37 1 1 0 1.4166666666666665 0.4930066485916348 5.0
38 1 1 0 1.4166666666666665 0.4930066485916348 6.0
39 1 1 0 1.4166666666666665 0.4930066485916348 7.0
40 1 1 0 1.4166666666666665 0.4930066485916348 8.0
41 1 1 0 1.4166666666666665 0.4930066485916348 9.0
42 1 1 0 1.4166666666666665 0.4930066485916348 10.0
43 1 1 0 1.1759259259259258 0.931234780673088 -10.0
44 1 1 0 1.1759259259259258 0.931234780673088 -9.0
45 1 1 0 1.1759259259259258 0.931234780673088 -8.0
46 1 1 0 1.1759259259259258 0.931234780673088 -7.0
47 1 1 0 1.1759259259259258 0.931234780673088 -6.0
48 1 1 0 1.1759259259259258 0.931234780673088 -5.0
49 1 1 0 1.1759259259259258 0.931234780673088 -4.0
50 1 1 0 1.1759259259259258 0.931234780673088 -3.0
51 1 1 0 1.1759259259259258 0.931234780673088 -2.0
52 1 1 0 1.1759259259259258 0.931234780673088 -1.0
53 1 1 0 1.1759259259259258 0.931234780673088 0.0
54 1 1 0 1.1759259259259258 0.931234780673088 1.0
55 1 1 0 1.1759259259259258 0.931234780673088 2.0
56 1 1 0 1.1759259259259258 0.931234780673088 3.0
57 1 1 0 1.1759259259259258 0.931234780673088 4.0
58 1 1 0 1.1759259259259258 0.931234780673088 5.0
59 1 1 0 1.1759259259259258 0.931234780673088 6.0
60 1 1 0 1.1759259259259258 0.931234780673088 7.0
61 1 1 0 1.1759259259259258 0.931234780673088 8.0
62 1 1 0 1.1759259259259258 0.931234780673088 9.0
63 1 1 0 1.1759259259259258 0.931234780673088 10.0
64 1 1 0 0.8045267489711931 1.2659923815686422 -10.0
65 1 1 0 0.8045267489711931 1.2659923815686422 -9.0
66 1 1 0 0.8045267489711931 1.2659923815686422 -8.0
67 1 1 0 0.8045267489711931 1.2659923815686422 -7.0
68 1 1 0 0.8045267489711931 1.2659923815686422 -6.0
69 1 1 0 0.8045267489711931 1.2659923815686422 -5.0
70 1 1 0 0.8045267489711931 1.2659923815686422 -4.0
71 1 1 0 0.8045267489711931 1.2659923815686422 -3.0
72 1 1 0 0.8045267489711931 1.2659923815686422 -2.0
73 1 1 0 0.8045267489711931 1.2659923815686422 -1.0
74 1 1 0 0.8045267489711931 1.2659923815686422 0.0
75 1 1 0 0.8045267489711931 1.2659923815686422 1.0
76 1 1 0 0.8045267489711931 1.2659923815686422 2.0
77 1 1 0 0.8045267489711931 1.2659923815686422 3.0
78 1 1 0 0.8045267489711931 1.2659923815686422 4.0
79 1 1 0 0.8045267489711931 1.2659923815686422 5.0
80 1 1 0 0.8045267489711931 1.2659923815686422 6.0
81 1 1 0 0.8045267489711931 1.2659923815686422 7.0
82 1 1 0 0.8045267489711931 1.2659923815686422 8.0
83 1 1 0 0.8045267489711931 1.2659923815686422 9.0
84 1 1 0 0.8045267489711931 1.2659923815686422 10.0
85 1 1 0 0.34373571101966105 1.460084162289903 -10.0
86 1 1 0 0.34373571101966105 1.460084162289903 -9.0
87 1 1 0 0.34373571101966105 1.460084162289903 -8.0
88 1 1 0 0.34373571101966105 1.460084162289903 -7.0
89 1 1 0 0.34373571101966105 1.460084162289903 -6.0
90 1 1 0 0.34373571101966105 1.460084162289903 -5.0
91 1 1 0 0.34373571101966105 1.460084162289903 -4.0
92 1 1 0 0.34373571101966105 1.460084162289903 -3.0
93 1 1 0 0.34373571101966105 1.460084162289903 -2.0
94 1 1 0 0.34373571101966105 1.460084162289903 -1.0
95 1 1 0 0.34373571101966105 1.460084162289903 0.0
96 1 1 0 0.34373571101966105 1.460084162289903 1.0
97 1 1 0 0.34373571101966105 1.460084162289903 2.0
98 1 1 0 0.34373571101966105 1.460084162289903 3.0
99 1 1 0 0.34373571101966105 1.460084162289903 4.0
100 1 1 0 0.34373571101966105 1.460084162289903 5.0
101 1 1 0 0.34373571101966105 1.460084162289903 6.0
102 1 1 0 0.34373571101966105 1.460084162289903 7.0
103 1 1 0 0.34373571101966105 1.460084162289903 8.0
104 1 1 0 0.34373571101966105 1.460084162289903 9.0
105 1 1 0 0.34373571101966105 1.460084162289903 10.0
106 1 1 0 -0.15524818371183333 1.4919443694233967 -10.0
107 1 1 0 -0.15524818371183333 1.4919443694233967 -9.0
108 1 1 0 -0.15524818371183333 1.4919443694233967 -8.0
109 1 1 0 -0.15524818371183333 1.4919443694233967 -7.0
110 1 1 0 -0.15524818371183333 1.4919443694233967 -6.0
111 1 1 0 -0.15524818371183333 1.4919443694233967 -5.0
112 1 1 0 -0.15524818371183333 1.4919443694233967 -4.0
113 1 1 0 -0.15524818371183333 1.4919443694233967 -3.0
114 1 1 0 -0.15524818371183333 1.4919443694233967 -2.0
115 1 1 0 -0.15524818371183333 1.4919443694233967 -1.0
116 1 1 0 -0.15524818371183333 1.4919443694233967 0.0
117 1 1 0 -0.15524818371183333 1.4919443694233967 1.0
118 1 1 0 -0.15524818371183333 1.4919443694233967 2.0
119 1 1 0 -0.15524818371183333 1.4919443694233967 3.0
120 1 1 0 -0.15524818371183333 1.4919443694233967 4.0
121 1 1 0 -0.15524818371183333 1.4919443694233967 5.0
122 1 1 0 -0.15524818371183333 1.4919443694233967 6.0
123 1 1 0 -0.15524818371183333 1.4919443694233967 7.0
124 1 1 0 -0.15524818371183333 1.4919443694233967 8.0
125 1 1 0 -0.15524818371183333 1.4919443694233967 9.0
126 1 1 0 -0.15524818371183333 1.4919443694233967 10.0
127 1 1 0 -0.6369822802531238 1.3580329799542907 -10.0
128 1 1 0 -0.6369822802531238 1.3580329799542907 -9.0
129 1 1 0 -0.6369822802531238 1.3580329799542907 -8.0
130 1 1 0 -0.6369822802531238 1.3580329799542907 -7.0
131 1 1 0 -0.6369822802531238 1.3580329799542907 -6.0
132 1 1 0 -0.6369822802531238 1.3580329799542907 -5.0
133 1 1 0 -0.6369822802531238 1.3580329799542907 -4.0
134 1 1 0 -0.6369822802531238 1.3580329799542907 -3.0
135 1 1 0 -0.6369822802531238 1.3580329799542907 -2.0
136 1 1 0 -0.6369822802531238 1.3580329799542907 -1.0
137 1 1 0 -0.6369822802531238 1.3580329799542907 0.0
138 1 1 0 -0.6369822802531238 1.3580329799542907 1.0
139 1 1 0 -0.6369822802531238 1.3580329799542907 2.0
140 1 1 0 -0.6369822802531238 1.3580329799542907 3.0
141 1 1 0 -0.6369822802531238 1.3580329799542907 4.0
142 1 1 0 -0.6369822802531238 1.3580329799542907 5.0
143 1 1 0 -0.6369822802531238 1.3580329799542907 6.0
144 1 1 0 -0.6369822802531238 1.3580329799542907 7.0
145 1 1 0 -0.6369822802531238 1.3580329799542907 8.0
146 1 1 0 -0.6369822802531238 1.3580329799542907 9.0
147 1 1 0 -0.6369822802531238 1.3580329799542907 10.0
148 1 1 0 -1.0479405678774003 1.0732290371569302 -10.0
149 1 1 0 -1.0479405678774003 1.0732290371569302 -9.0
150 1 1 0 -1.0479405678774003 1.0732290371569302 -8.0
151 1 1 0 -1.0479405678774003 1.0732290371569302 -7.0
152 1 1 0 -1.0479405678774003 1.0732290371569302 -6.0
153 1 1 0 -1.0479405678774003 1.0732290371569302 -5.0
154 1 1 0 -1.0479405678774003 1.0732290371569302 -4.0
155 1 1 0 -1.0479405678774003 1.0732290371569302 -3.0
156 1 1 0 -1.0479405678774003 1.0732290371569302 -2.0
157 1 1 0 -1.0479405678774003 1.0732290371569302 -1.0
158 1 1 0 -1.0479405678774003 1.0732290371569302 0.0
159 1 1 0 -1.0479405678774003 1.0732290371569302 1.0
160 1 1 0 -1.0479405678774003 1.0732290371569302 2.0
161 1 1 0 -1.0479405678774003 1.0732290371569302 3.0
162 1 1 0 -1.0479405678774003 1.0732290371569302 4.0
163 1 1 0 -1.0479405678774003 1.0732290371569302 5.0
164 1 1 0 -1.0479405678774003 1.0732290371569302 6.0
165 1 1 0 -1.0479405678774003 1.0732290371569302 7.0
166 1 1 0 -1.0479405678774003 1.0732290371569302 8.0
167 1 1 0 -1.0479405678774003 1.0732290371569302 9.0
168 1 1 0 -1.0479405678774003 1.0732290371569302 10.0
169 1 1 0 -1.3424610146264104 0.6691774235643554 -10.0
170 1 1 0 -1.3424610146264104 0.6691774235643554 -9.0
171 1 1 0 -1.3424610146264104 0.6691774235643554 -8.0
172 1 1 0 -1.3424610146264104 0.6691774235643554 -7.0
173 1 1 0 -1.3424610146264104 0.6691774235643554 -6.0
174 1 1 0 -1.3424610146264104 0.6691774235643554 -5.0
175 1 1 0 -1.3424610146264104 0.6691774235643554 -4.0
176 1 1 0 -1.3424610146264104 0.6691774235643554 -3.0
177 1 1 0 -1.3424610146264104 0.6691774235643554 -2.0
178 1 1 0 -1.3424610146264104 0.6691774235643554 -1.0
179 1 1 0 -1.3424610146264104 0.6691774235643554 0.0
180 1 1 0 -1.3424610146264104 0.6691774235643554 1.0
181 1 1 0 -1.3424610146264104 0.6691774235643554 2.0
182 1 1 0 -1.3424610146264104 0.6691774235643554 3.0
183 1 1 0 -1.3424610146264104 0.6691774235643554 4.0
184 1 1 0 -1.3424610146264104 0.6691774235643554 5.0
185 1 1 0 -1.3424610146264104 0.6691774235643554 6.0
186 1 1 0 -1.3424610146264104 0.6691774235643554 7.0
187 1 1 0 -1.3424610146264104 0.6691774235643554 8.0
188 1 1 0 -1.3424610146264104 0.6691774235643554 9.0
189 1 1 0 -1.3424610146264104 0.6691774235643554 10.0
190 1 1 0 -1.4878191264169305 0.19077276290907436 -10.0
191 1 1 0 -1.4878191264169305 0.19077276290907436 -9.0
192 1 1 0 -1.4878191264169305 0.19077276290907436 -8.0
193 1 1 0 -1.4878191264169305 0.19077276290907436 -7.0
194 1 1 0 -1.4878191264169305 0.19077276290907436 -6.0
195 1 1 0 -1.4878191264169305 0.19077276290907436 -5.0
196 1 1 0 -1.4878191264169305 0.19077276290907436 -4.0
197 1 1 0 -1.4878191264169305 0.19077276290907436 -3.0
198 1 1 0 -1.4878191264169305 0.19077276290907436 -2.0
199 1 1 0 -1.4878191264169305 0.19077276290907436 -1.0
200 1 1 0 -1.4878191264169305 0.19077276290907436 0.0
201 1 1 0 -1.4878191264169305 0.19077276290907436 1.0
202 1 1 0 -1.4878191264169305 0.19077276290907436 2.0
203 1 1 0 -1.4878191264169305 0.19077276290907436 3.0
204 1 1 0 -1.4878191264169305 0.19077276290907436 4.0
205 1 1 0 -1.4878191264169305 0.19077276290907436 5.0
206 1 1 0 -1.4878191264169305 0.19077276290907436 6.0
207 1 1 0 -1.4878191264169305 0.19077276290907436 7.0
208 1 1 0 -1.4878191264169305 0.19077276290907436 8.0
209 1 1 0 -1.4878191264169305 0.19077276290907436 9.0
210 1 1 0 -1.4878191264169305 0.19077276290907436 10.0
211 1 1 0 -1.4678640019389027 -0.30882887140277043 -10.0
212 1 1 0 -1.4678640019389027 -0.30882887140277043 -9.0
213 1 1 0 -1.4678640019389027 -0.30882887140277043 -8.0
214 1 1 0 -1.4678640019389027 -0.30882887140277043 -7.0
215 1 1 0 -1.4678640019389027 -0.30882887140277043 -6.0
216 1 1 0 -1.4678640019389027 -0.30882887140277043 -5.0
217 1 1 0 -1.4678640019389027 -0.30882887140277043 -4.0
218 1 1 0 -1.4678640019389027 -0.30882887140277043 -3.0
219 1 1 0 -1.4678640019389027 -0.30882887140277043 -2.0
220 1 1 0 -1.4678640019389027 -0.30882887140277043 -1.0
221 1 1 0 -1.4678640019389027 -0.30882887140277043 0.0
222 1 1 0 -1.4678640019389027 -0.30882887140277043 1.0
223 1 1 0 -1.4678640019389027 -0.30882887140277043 2.0
224 1 1 0 -1.4678640019389027 -0.30882887140277043 3.0
225 1 1 0 -1.4678640019389027 -0.30882887140277043 4.0
226 1 1 0 -1.4678640019389027 -0.30882887140277043 5.0
227 1 1 0 -1.4678640019389027 -0.30882887140277043 6.0
228 1 1 0 -1.4678640019389027 -0.30882887140277043 7.0
229 1 1 0 -1.4678640019389027 -0.30882887140277043 8.0
230 1 1 0 -1.4678640019389027 -0.30882887140277043 9.0
231 1 1 0 -1.4678640019389027 -0.30882887140277043 10.0
232 1 1 0 -1.2848128772454415 -0.7741161866698629 -10.0
233 1 1 0 -1.2848128772454415 -0.7741161866698629 -9.0
234 1 1 0 -1.2848128772454415 -0.7741161866698629 -8.0
235 1 1 0 -1.2848128772454415 -0.7741161866698629 -7.0
236 1 1 0 -1.2848128772454415 -0.7741161866698629 -6.0
237 1 1 0 -1.2848128772454415 -0.7741161866698629 -5.0
238 1 1 0 -1.2848128772454415 -0.7741161866698629 -4.0
239 1 1 0 -1.2848128772454415 -0.7741161866698629 -3.0
240 1 1 0 -1.2848128772454415 -0.7741161866698629 -2.0
241 1 1 0 -1.2848128772454415 -0.7741161866698629 -1.0
242 1 1 0 -1.2848128772454415 -0.7741161866698629 0.0
243 1 1 0 -1.2848128772454415 -0.7741161866698629 1.0
244 1 1 0 -1.2848128772454415 -0.7741161866698629 2.0
245 1 1 0 -1.2848128772454415 -0.7741161866698629 3.0
246 1 1 0 -1.2848128772454415 -0.7741161866698629 4.0
247 1 1 0 -1.2848128772454415 -0.7741161866698629 5.0
248 1 1 0 -1.2848128772454415 -0.7741161866698629 6.0
249 1 1 0 -1.2848128772454415 -0.7741161866698629 7.0
250 1 1 0 -1.2848128772454415 -0.7741161866698629 8.0
251 1 1 0 -1.2848128772454415 -0.7741161866698629 9.0
252 1 1 0 -1.2848128772454415 -0.7741161866698629 10.0
253 1 1 0 -0.9590047661913755 -1.1533905923069707 -10.0
254 1 1 0 -0.9590047661913755 -1.1533905923069707 -9.0
255 1 1 0 -0.9590047661913755 -1.1533905923069707 -8.0
256 1 1 0 -0.9590047661913755 -1.1533905923069707 -7.0
257 1 1 0 -0.9590047661913755 -1.1533905923069707 -6.0
258 1 1 0 -0.9590047661913755 -1.1533905923069707 -5.0
259 1 1 0 -0.9590047661913755 -1.1533905923069707 -4.0
260 1 1 0 -0.9590047661913755 -1.1533905923069707 -3.0
261 1 1 0 -0.9590047661913755 -1.1533905923069707 -2.0
262 1 1 0 -0.9590047661913755 -1.1533905923069707 -1.0
263 1 1 0 -0.9590047661913755 -1.1533905923069707 0.0
264 1 1 0 -0.9590047661913755 -1.1533905923069707 1.0
265 1 1 0 -0.9590047661913755 -1.1533905923069707 2.0
266 1 1 0 -0.9590047661913755 -1.1533905923069707 3.0
267 1 1 0 -0.9590047661913755 -1.1533905923069707 4.0
268 1 1 0 -0.9590047661913755 -1.1533905923069707 5.0
269 1 1 0 -0.9590047661913755 -1.1533905923069707 6.0
270 1 1 0 -0.9590047661913755 -1.1533905923069707 7.0
271 1 1 0 -0.9590047661913755 -1.1533905923069707 8.0
272 1 1 0 -0.9590047661913755 -1.1533905923069707 9.0
273 1 1 0 -0.9590047661913755 -1.1533905923069707 10.0
274 1 1 0 -0.5266405700049347 -1.4045104876877486 -10.0
275 1 1 0 -0.5266405700049347 -1.4045104876877486 -9.0
276 1 1 0 -0.5266405700049347 -1.4045104876877486 -8.0
277 1 1 0 -0.5266405700049347 -1.4045104876877486 -7.0
278 1 1 0 -0.5266405700049347 -1.4045104876877486 -6.0
279 1 1 0 -0.5266405700049347 -1.4045104876877486 -5.0
280 1 1 0 -0.5266405700049347 -1.4045104876877486 -4.0
281 1 1 0 -0.5266405700049347 -1.4045104876877486 -3.0
282 1 1 0 -0.5266405700049347 -1.4045104876877486 -2.0
283 1 1 0 -0.5266405700049347 -1.4045104876877486 -1.0
284 1 1 0 -0.5266405700049347 -1.4045104876877486 0.0
285 1 1 0 -0.5266405700049347 -1.4045104876877486 1.0
286 1 1 0 -0.5266405700049347 -1.4045104876877486 2.0
287 1 1 0 -0.5266405700049347 -1.4045104876877486 3.0
288 1 1 0 -0.5266405700049347 -1.4045104876877486 4.0
289 1 1 0 -0.5266405700049347 -1.4045104876877486 5.0
290 1 1 0 -0.5266405700049347 -1.4045104876877486 6.0
291 1 1 0 -0.5266405700049347 -1.4045104876877486 7.0
292 1 1 0 -0.5266405700049347 -1.4045104876877486 8.0
293 1 1 0 -0.5266405700049347 -1.4045104876877486 9.0
294 1 1 0 -0.5266405700049347 -1.4045104876877486 10.0
295 1 1 0 -0.03576075492905673 -1.499573662214332 -10.0
296 1 1 0 -0.03576075492905673 -1.499573662214332 -9.0
297 1 1 0 -0.03576075492905673 -1.499573662214332 -8.0
298 1 1 0 -0.03576075492905673 -1.499573662214332 -7.0
299 1 1 0 -0.03576075492905673 -1.499573662214332 -6.0
300 1 1 0 -0.03576075492905673 -1.499573662214332 -5.0
301 1 1 0 -0.03576075492905673 -1.499573662214332 -4.0
302 1 1 0 -0.03576075492905673 -1.499573662214332 -3.0
303 1 1 0 -0.03576075492905673 -1.499573662214332 -2.0
304 1 1 0 -0.03576075492905673 -1.499573662214332 -1.0
305 1 1 0 -0.03576075492905673 -1.499573662214332 0.0
306 1 1 0 -0.03576075492905673 -1.499573662214332 1.0
307 1 1 0 -0.03576075492905673 -1.499573662214332 2.0
308 1 1 0 -0.03576075492905673 -1.499573662214332 3.0
309 1 1 0 -0.03576075492905673 -1.499573662214332 4.0
310 1 1 0 -0.03576075492905673 -1.499573662214332 5.0
311 1 1 0 -0.03576075492905673 -1.499573662214332 6.0
312 1 1 0 -0.03576075492905673 -1.499573662214332 7.0
313 1 1 0 -0.03576075492905673 -1.499573662214332 8.0
314 1 1 0 -0.03576075492905673 -1.499573662214332 9.0
315 1 1 0 -0.03576075492905673 -1.499573662214332 10.0
316 1 1 0 0.459092477361161 -1.4280175409393232 -10.0
317 1 1 0 0.459092477361161 -1.4280175409393232 -9.0
318 1 1 0 0.459092477361161 -1.4280175409393232 -8.0
319 1 1 0 0.459092477361161 -1.4280175409393232 -7.0
320 1 1 0 0.459092477361161 -1.4280175409393232 -6.0
321 1 1 0 0.459092477361161 -1.4280175409393232 -5.0
322 1 1 0 0.459092477361161 -1.4280175409393232 -4.0
323 1 1 0 0.459092477361161 -1.4280175409393232 -3.0
324 1 1 0 0.459092477361161 -1.4280175409393232 -2.0
325 1 1 0 0.459092477361161 -1.4280175409393232 -1.0
326 1 1 0 0.459092477361161 -1.4280175409393232 0.0
327 1 1 0 0.459092477361161 -1.4280175409393232 1.0
328 1 1 0 0.459092477361161 -1.4280175409393232 2.0
329 1 1 0 0.459092477361161 -1.4280175409393232 3.0
330 1 1 0 0.459092477361161 -1.4280175409393232 4.0
331 1 1 0 0.459092477361161 -1.4280175409393232 5.0
332 1 1 0 0.459092477361161 -1.4280175409393232 6.0
333 1 1 0 0.459092477361161 -1.4280175409393232 7.0
334 1 1 0 0.459092477361161 -1.4280175409393232 8.0
335 1 1 0 0.459092477361161 -1.4280175409393232 9.0
336 1 1 0 0.459092477361161 -1.4280175409393232 10.0
337 1 1 0 0.9029354343890275 -1.1977928040043897 -10.0
338 1 1 0 0.9029354343890275 -1.1977928040043897 -9.0
339 1 1 0 0.9029354343890275 -1.1977928040043897 -8.0
340 1 1 0 0.9029354343890275 -1.1977928040043897 -7.0
341 1 1 0 0.9029354343890275 -1.1977928040043897 -6.0
342 1 1 0 0.9029354343890275 -1.1977928040043897 -5.0
343 1 1 0 0.9029354343890275 -1.1977928040043897 -4.0
344 1 1 0 0.9029354343890275 -1.1977928040043897 -3.0
345 1 1 0 0.9029354343890275 -1.1977928040043897 -2.0
346 1 1 0 0.9029354343890275 -1.1977928040043897 -1.0
347 1 1 0 0.9029354343890275 -1.1977928040043897 0.0
348 1 1 0 0.9029354343890275 -1.1977928040043897 1.0
349 1 1 0 0.9029354343890275 -1.1977928040043897 2.0
350 1 1 0 0.9029354343890275 -1.1977928040043897 3.0
351 1 1 0 0.9029354343890275 -1.1977928040043897 4.0
352 1 1 0 0.9029354343890275 -1.1977928040043897 5.0
353 1 1 0 0.9029354343890275 -1.1977928040043897 6.0
354 1 1 0 0.9029354343890275 -1.1977928040043897 7.0
355 1 1 0 0.9029354343890275 -1.1977928040043897 8.0
356 1 1 0 0.9029354343890275 -1.1977928040043897 9.0
357 1 1 0 0.9029354343890275 -1.1977928040043897 10.0
358 1 1 0 1.2464522320403353 -0.8344799777356352 -10.0
359 1 1 0 1.2464522320403353 -0.8344799777356352 -9.0
360 1 1 0 1.2464522320403353 -0.8344799777356352 -8.0
361 1 1 0 1.2464522320403353 -0.8344799777356352 -7.0
362 1 1 0 1.2464522320403353 -0.8344799777356352 -6.0
363 1 1 0 1.2464522320403353 -0.8344799777356352 -5.0
364 1 1 0 1.2464522320403353 -0.8344799777356352 -4.0
365 1 1 0 1.2464522320403353 -0.8344799777356352 -3.0
366 1 1 0 1.2464522320403353 -0.8344799777356352 -2.0
367 1 1 0 1.2464522320403353 -0.8344799777356352 -1.0
368 1 1 0 1.2464522320403353 -0.8344799777356352 0.0
369 1 1 0 1.2464522320403353 -0.8344799777356352 1.0
370 1 1 0 1.2464522320403353 -0.8344799777356352 2.0
371 1 1 0 1.2464522320403353 -0.8344799777356352 3.0
372 1 1 0 1.2464522320403353 -0.8344799777356352 4.0
373 1 1 0 1.2464522320403353 -0.8344799777356352 5.0
374 1 1 0 1.2464522320403353 -0.8344799777356352 6.0
375 1 1 0 1.2464522320403353 -0.8344799777356352 7.0
376 1 1 0 1.2464522320403353 -0.8344799777356352 8.0
377 1 1 0 1.2464522320403353 -0.8344799777356352 9.0
378 1 1 0 1.2464522320403353 -0.8344799777356352 10.0
379 1 1 0 -10.0 -10.0 -10.0
380 1 1 0 -10.0 -10.0 10.0
381 1 1 0 -10.0 -9.0 -10.0
382 1 1 0 -10.0 -9.0 10.0
383 1 1 0 -10.0 -8.0 -10.0
384 1 1 0 -10.0 -8.0 10.0
385 1 1 0 -10.0 -7.0 -10.0
386 1 1 0 -10.0 -7.0 10.0
387 1 1 0 -10.0 -6.0 -10.0
388 1 1 0 -10.0 -6.0 10.0
389 1 1 0 -10.0 -5.0 -10.0
390 1 1 0 -10.0 -5.0 10.0
391 1 1 0 -10.0 -4.0 -10.0
392 1 1 0 -10.0 -4.0 10.0
393 1 1 0 -10.0 -3.0 -10.0
394 1 1 0 -10.0 -3.0 10.0
395 1 1 0 -10.0 -2.0 -10.0
396 1 1 0 -10.0 -2.0 10.0
397 1 1 0 -10.0 -1.0 -10.0
398 1 1 0 -10.0 -1.0 10.0
399 1 1 0 -10.0 0.0 -10.0
400 1 1 0 -10.0 0.0 10.0
401 1 1 0 -10.0 1.0 -10.0
402 1 1 0 -10.0 1.0 10.0
403 1 1 0 -10.0 2.0 -10.0
404 1 1 0 -10.0 2.0 10.0
405 1 1 0 -10.0 3.0 -10.0
406 1 1 0 -10.0 3.0 10.0
407 1 1 0 -10.0 4.0 -10.0
408 1 1 0 -10.0 4.0 10.0
409 1 1 0 -10.0 5.0 -10.0
410 1 1 0 -10.0 5.0 10.0
411 1 1 0 -10.0 6.0 -10.0
412 1 1 0 -10.0 6.0 10.0
413 1 1 0 -10.0 7.0 -10.0
414 1 1 0 -10.0 7.0 10.0
415 1 1 0 -10.0 8.0 -10.0
416 1 1 0 -10.0 8.0 10.0
417 1 1 0 -10.0 9.0 -10.0
418 1 1 0 -10.0 9.0 10.0
419 1 1 0 -10.0 10.0 -10.0
420 1 1 0 -10.0 10.0 10.0
421 1 1 0 -9.0 -10.0 -10.0
422 1 1 0 -9.0 -10.0 10.0
423 1 1 0 -9.0 -9.0 -10.0
424 1 1 0 -9.0 -9.0 10.0
425 1 1 0 -9.0 -8.0 -10.0
426 1 1 0 -9.0 -8.0 10.0
427 1 1 0 -9.0 -7.0 -10.0
428 1 1 0 -9.0 -7.0 10.0
429 1 1 0 -9.0 -6.0 -10.0
430 1 1 0 -9.0 -6.0 10.0
431 1 1 0 -9.0 -5.0 -10.0
432 1 1 0 -9.0 -5.0 10.0
433 1 1 0 -9.0 -4.0 -10.0
434 1 1 0 -9.0 -4.0 10.0
435 1 1 0 -9.0 -3.0 -10.0
436 1 1 0 -9.0 -3.0 10.0
437 1 1 0 -9.0 -2.0 -10.0
438 1 1 0 -9.0 -2.0 10.0
439 1 1 0 -9.0 -1.0 -10.0
440 1 1 0 -9.0 -1.0 10.0
441 1 1 0 -9.0 0.0 -10.0
442 1 1 0 -9.0 0.0 10.0
443 1 1 0 -9.0 1.0 -10.0
444 1 1 0 -9.0 1.0 10.0
445 1 1 0 -9.0 2.0 -10.0
446 1 1 0 -9.0 2.0 10.0
447 1 1 0 -9.0 3.0 -10.0
448 1 1 0 -9.0 3.0 10.0
449 1 1 0 -9.0 4.0 -10.0
450 1 1 0 -9.0 4.0 10.0
451 1 1 0 -9.0 5.0 -10.0
452 1 1 0 -9.0 5.0 10.0
453 1 1 0 -9.0 6.0 -10.0
454 1 1 0 -9.0 6.0 10.0
455 1 1 0 -9.0 7.0 -10.0
456 1 1 0 -9.0 7.0 10.0
457 1 1 0 -9.0 8.0 -10.0
458 1 1 0 -9.0 8.0 10.0
459 1 1 0 -9.0 9.0 -10.0
460 1 1 0 -9.0 9.0 10.0
461 1 1 0 -9.0 10.0 -10.0
462 1 1 0 -9.0 10.0 10.0
463 1 1 0 -8.0 -10.0 -10.0
464 1 1 0 -8.0 -10.0 10.0
465 1 1 0 -8.0 -9.0 -10.0
466 1 1 0 -8.0 -9.0 10.0
467 1 1 0 -8.0 -8.0 -10.0
468 1 1 0 -8.0 -8.0 10.0
469 1 1 0 -8.0 -7.0 -10.0
470 1 1 0 -8.0 -7.0 10.0
471 1 1 0 -8.0 -6.0 -10.0
472 1 1 0 -8.0 -6.0 10.0
473 1 1 0 -8.0 -5.0 -10.0
474 1 1 0 -8.0 -5.0 10.0
475 1 1 0 -8.0 -4.0 -10.0
476 1 1 0 -8.0 -4.0 10.0
477 1 1 0 -8.0 -3.0 -10.0
478 1 1 0 -8.0 -3.0 10.0
479 1 1 0 -8.0 -2.0 -10.0
480 1 1 0 -8.0 -2.0 10.0
481 1 1 0 -8.0 -1.0 -10.0
482 1 1 0 -8.0 -1.0 10.0
483 1 1 0 -8.0 0.0 -10.0
484 1 1 0 -8.0 0.0 10.0
485 1 1 0 -8.0 1.0 -10.0
486 1 1 0 -8.0 1.0 10.0
487 1 1 0 -8.0 2.0 -10.0
488 1 1 0 -8.0 2.0 10.0
489 1 1 0 -8.0 3.0 -10.0
490 1 1 0 -8.0 3.0 10.0
491 1 1 0 -8.0 4.0 -10.0
492 1 1 0 -8.0 4.0 10.0
493 1 1 0 -8.0 5.0 -10.0
494 1 1 0 -8.0 5.0 10.0
495 1 1 0 -8.0 6.0 -10.0
496 1 1 0 -8.0 6.0 10.0
497 1 1 0 -8.0 7.0 -10.0
498 1 1 0 -8.0 7.0 10.0
499 1 1 0 -8.0 8.0 -10.0
500 1 1 0 -8.0 8.0 10.0
501 1 1 0 -8.0 9.0 -10.0
502 1 1 0 -8.0 9.0 10.0
503 1 1 0 -8.0 10.0 -10.0
504 1 1 0 -8.0 10.0 10.0
505 1 1 0 -7.0 -10.0 -10.0
506 1 1 0 -7.0 -10.0 10.0
507 1 1 0 -7.0 -9.0 -10.0
508 1 1 0 -7.0 -9.0 10.0
509 1 1 0 -7.0 -8.0 -10.0
510 1 1 0 -7.0 -8.0 10.0
511 1 1 0 -7.0 -7.0 -10.0
512 1 1 0 -7.0 -7.0 10.0
513 1 1 0 -7.0 -6.0 -10.0
514 1 1 0 -7.0 -6.0 10.0
515 1 1 0 -7.0 -5.0 -10.0
516 1 1 0 -7.0 -5.0 10.0
517 1 1 0 -7.0 -4.0 -10.0
518 1 1 0 -7.0 -4.0 10.0
519 1 1 0 -7.0 -3.0 -10.0
520 1 1 0 -7.0 -3.0 10.0
521 1 1 0 -7.0 -2.0 -10.0
522 1 1 0 -7.0 -2.0 10.0
523 1 1 0 -7.0 -1.0 -10.0
524 1 1 0 -7.0 -1.0 10.0
525 1 1 0 -7.0 0.0 -10.0
526 1 1 0 -7.0 0.0 10.0
527 1 1 0 -7.0 1.0 -10.0
528 1 1 0 -7.0 1.0 10.0
529 1 1 0 -7.0 2.0 -10.0
530 1 1 0 -7.0 2.0 10.0
531 1 1 0 -7.0 3.0 -10.0
532 1 1 0 -7.0 3.0 10.0
533 1 1 0 -7.0 4.0 -10.0
534 1 1 0 -7.0 4.0 10.0
535 1 1 0 -7.0 5.0 -10.0
536 1 1 0 -7.0 5.0 10.0
537 1 1 0 -7.0 6.0 -10.0
538 1 1 0 -7.0 6.0 10.0
539 1 1 0 -7.0 7.0 -10.0
540 1 1 0 -7.0 7.0 10.0
541 1 1 0 -7.0 8.0 -10.0
542 1 1 0 -7.0 8.0 10.0
543 1 1 0 -7.0 9.0 -10.0
544 1 1 0 -7.0 9.0 10.0
545 1 1 0 -7.0 10.0 -10.0
546 1 1 0 -7.0 10.0 10.0
547 1 1 0 -6.0 -10.0 -10.0
548 1 1 0 -6.0 -10.0 10.0
549 1 1 0 -6.0 -9.0 -10.0
550 1 1 0 -6.0 -9.0 10.0
551 1 1 0 -6.0 -8.0 -10.0
552 1 1 0 -6.0 -8.0 10.0
553 1 1 0 -6.0 -7.0 -10.0
554 1 1 0 -6.0 -7.0 10.0
555 1 1 0 -6.0 -6.0 -10.0
556 1 1 0 -6.0 -6.0 10.0
557 1 1 0 -6.0 -5.0 -10.0
558 1 1 0 -6.0 -5.0 10.0
559 1 1 0 -6.0 -4.0 -10.0
560 1 1 0 -6.0 -4.0 10.0
561 1 1 0 -6.0 -3.0 -10.0
562 1 1 0 -6.0 -3.0 10.0
563 1 1 0 -6.0 -2.0 -10.0
564 1 1 0 -6.0 -2.0 10.0
565 1 1 0 -6.0 -1.0 -10.0
566 1 1 0 -6.0 -1.0 10.0
567 1 1 0 -6.0 0.0 -10.0
568 1 1 0 -6.0 0.0 10.0
569 1 1 0 -6.0 1.0 -10.0
570 1 1 0 -6.0 1.0 10.0
571 1 1 0 -6.0 2.0 -10.0
572 1 1 0 -6.0 2.0 10.0
573 1 1 0 -6.0 3.0 -10.0
574 1 1 0 -6.0 3.0 10.0
575 1 1 0 -6.0 4.0 -10.0
576 1 1 0 -6.0 4.0 10.0
577 1 1 0 -6.0 5.0 -10.0
578 1 1 0 -6.0 5.0 10.0
579 1 1 0 -6.0 6.0 -10.0
580 1 1 0 -6.0 6.0 10.0
581 1 1 0 -6.0 7.0 -10.0
582 1 1 0 -6.0 7.0 10.0
583 1 1 0 -6.0 8.0 -10.0
584 1 1 0 -6.0 8.0 10.0
585 1 1 0 -6.0 9.0 -10.0
586 1 1 0 -6.0 9.0 10.0
587 1 1 0 -6.0 10.0 -10.0
588 1 1 0 -6.0 10.0 10.0
589 1 1 0 -5.0 -10.0 -10.0
590 1 1 0 -5.0 -10.0 10.0
591 1 1 0 -5.0 -9.0 -10.0
592 1 1 0 -5.0 -9.0 10.0
593 1 1 0 -5.0 -8.0 -10.0
594 1 1 0 -5.0 -8.0 10.0
595 1 1 0 -5.0 -7.0 -10.0
596 1 1 0 -5.0 -7.0 10.0
597 1 1 0 -5.0 -6.0 -10.0
598 1 1 0 -5.0 -6.0 10.0
599 1 1 0 -5.0 -5.0 -10.0
600 1 1 0 -5.0 -5.0 10.0
601 1 1 0 -5.0 -4.0 -10.0
602 1 1 0 -5.0 -4.0 10.0
603 1 1 0 -5.0 -3.0 -10.0
604 1 1 0 -5.0 -3.0 10.0
605 1 1 0 -5.0 -2.0 -10.0
606 1 1 0 -5.0 -2.0 10.0
607 1 1 0 -5.0 -1.0 -10.0
608 1 1 0 -5.0 -1.0 10.0
609 1 1 0 -5.0 0.0 -10.0
610 1 1 0 -5.0 0.0 10.0
611 1 1 0 -5.0 1.0 -10.0
612 1 1 0 -5.0 1.0 10.0
613 1 1 0 -5.0 2.0 -10.0
614 1 1 0 -5.0 2.0 10.0
615 1 1 0 -5.0 3.0 -10.0
616 1 1 0 -5.0 3.0 10.0
617 1 1 0 -5.0 4.0 -10.0
618 1 1 0 -5.0 4.0 10.0
619 1 1 0 -5.0 5.0 -10.0
620 1 1 0 -5.0 5.0 10.0
621 1 1 0 -5.0 6.0 -10.0
622 1 1 0 -5.0 6.0 10.0
623 1 1 0 -5.0 7.0 -10.0
624 1 1 0 -5.0 7.0 10.0
625 1 1 0 -5.0 8.0 -10.0
626 1 1 0 -5.0 8.0 10.0
627 1 1 0 -5.0 9.0 -10.0
628 1 1 0 -5.0 9.0 10.0
629 1 1 0 -5.0 10.0 -10.0
630 1 1 0 -5.0 10.0 10.0
631 1 1 0 -4.0 -10.0 -10.0
632 1 1 0 -4.0 -10.0 10.0
633 1 1 0 -4.0 -9.0 -10.0
634 1 1 0 -4.0 -9.0 10.0
635 1 1 0 -4.0 -8.0 -10.0
636 1 1 0 -4.0 -8.0 10.0
637 1 1 0 -4.0 -7.0 -10.0
638 1 1 0 -4.0 -7.0 10.0
639 1 1 0 -4.0 -6.0 -10.0
640 1 1 0 -4.0 -6.0 10.0
641 1 1 0 -4.0 -5.0 -10.0
642 1 1 0 -4.0 -5.0 10.0
643 1 1 0 -4.0 -4.0 -10.0
644 1 1 0 -4.0 -4.0 10.0
645 1 1 0 -4.0 -3.0 -10.0
646 1 1 0 -4.0 -3.0 10.0
647 1 1 0 -4.0 -2.0 -10.0
648 1 1 0 -4.0 -2.0 10.0
649 1 1 0 -4.0 -1.0 -10.0
650 1 1 0 -4.0 -1.0 10.0
651 1 1 0 -4.0 0.0 -10.0
652 1 1 0 -4.0 0.0 10.0
653 1 1 0 -4.0 1.0 -10.0
654 1 1 0 -4.0 1.0 10.0
655 1 1 0 -4.0 2.0 -10.0
656 1 1 0 -4.0 2.0 10.0
657 1 1 0 -4.0 3.0 -10.0
658 1 1 0 -4.0 3.0 10.0
659 1 1 0 -4.0 4.0 -10.0
660 1 1 0 -4.0 4.0 10.0
661 1 1 0 -4.0 5.0 -10.0
662 1 1 0 -4.0 5.0 10.0
663 1 1 0 -4.0 6.0 -10.0
664 1 1 0 -4.0 6.0 10.0
665 1 1 0 -4.0 7.0 -10.0
666 1 1 0 -4.0 7.0 10.0
667 1 1 0 -4.0 8.0 -10.0
668 1 1 0 -4.0 8.0 10.0
669 1 1 0 -4.0 9.0 -10.0
670 1 1 0 -4.0 9.0 10.0
671 1 1 0 -4.0 10.0 -10.0
672 1 1 0 -4.0 10.0 10.0
673 1 1 0 -3.0 -10.0 -10.0
674 1 1 0 -3.0 -10.0 10.0
675 1 1 0 -3.0 -9.0 -10.0
676 1 1 0 -3.0 -9.0 10.0
677 1 1 0 -3.0 -8.0 -10.0
678 1 1 0 -3.0 -8.0 10.0
679 1 1 0 -3.0 -7.0 -10.0
680 1 1 0 -3.0 -7.0 10.0
681 1 1 0 -3.0 -6.0 -10.0
682 1 1 0 -3.0 -6.0 10.0
683 1 1 0 -3.0 -5.0 -10.0
684 1 1 0 -3.0 -5.0 10.0
685 1 1 0 -3.0 -4.0 -10.0
686 1 1 0 -3.0 -4.0 10.0
687 1 1 0 -3.0 -3.0 -10.0
688 1 1 0 -3.0 -3.0 10.0
689 1 1 0 -3.0 -2.0 -10.0
690 1 1 0 -3.0 -2.0 10.0
691 1 1 0 -3.0 -1.0 -10.0
692 1 1 0 -3.0 -1.0 10.0
693 1 1 0 -3.0 0.0 -10.0
694 1 1 0 -3.0 0.0 10.0
695 1 1 0 -3.0 1.0 -10.0
696 1 1 0 -3.0 1.0 10.0
697 1 1 0 -3.0 2.0 -10.0
698 1 1 0 -3.0 2.0 10.0
699 1 1 0 -3.0 3.0 -10.0
700 1 1 0 -3.0 3.0 10.0
701 1 1 0 -3.0 4.0 -10.0
702 1 1 0 -3.0 4.0 10.0
703 1 1 0 -3.0 5.0 -10.0
704 1 1 0 -3.0 5.0 10.0
705 1 1 0 -3.0 6.0 -10.0
706 1 1 0 -3.0 6.0 10.0
707 1 1 0 -3.0 7.0 -10.0
708 1 1 0 -3.0 7.0 10.0
709 1 1 0 -3.0 8.0 -10.0
710 1 1 0 -3.0 8.0 10.0
711 1 1 0 -3.0 9.0 -10.0
712 1 1 0 -3.0 9.0 10.0
713 1 1 0 -3.0 10.0 -10.0
714 1 1 0 -3.0 10.0 10.0
715 1 1 0 -2.0 -10.0 -10.0
716 1 1 0 -2.0 -10.0 10.0
717 1 1 0 -2.0 -9.0 -10.0
718 1 1 0 -2.0 -9.0 10.0
719 1 1 0 -2.0 -8.0 -10.0
720 1 1 0 -2.0 -8.0 10.0
721 1 1 0 -2.0 -7.0 -10.0
722 1 1 0 -2.0 -7.0 10.0
723 1 1 0 -2.0 -6.0 -10.0
724 1 1 0 -2.0 -6.0 10.0
725 1 1 0 -2.0 -5.0 -10.0
726 1 1 0 -2.0 -5.0 10.0
727 1 1 0 -2.0 -4.0 -10.0
728 1 1 0 -2.0 -4.0 10.0
729 1 1 0 -2.0 -3.0 -10.0
730 1 1 0 -2.0 -3.0 10.0
731 1 1 0 -2.0 -2.0 -10.0
732 1 1 0 -2.0 -2.0 10.0
733 1 1 0 -2.0 2.0 -10.0
734 1 1 0 -2.0 2.0 10.0
735 1 1 0 -2.0 3.0 -10.0
736 1 1 0 -2.0 3.0 10.0
737 1 1 0 -2.0 4.0 -10.0
738 1 1 0 -2.0 4.0 10.0
739 1 1 0 -2.0 5.0 -10.0
740 1 1 0 -2.0 5.0 10.0
741 1 1 0 -2.0 6.0 -10.0
742 1 1 0 -2.0 6.0 10.0
743 1 1 0 -2.0 7.0 -10.0
744 1 1 0 -2.0 7.0 10.0
745 1 1 0 -2.0 8.0 -10.0
746 1 1 0 -2.0 8.0 10.0
747 1 1 0 -2.0 9.0 -10.0
748 1 1 0 -2.0 9.0 10.0
749 1 1 0 -2.0 10.0 -10.0
750 1 1 0 -2.0 10.0 10.0
751 1 1 0 -1.0 -10.0 -10.0
752 1 1 0 -1.0 -10.0 10.0
753 1 1 0 -1.0 -9.0 -10.0
754 1 1 0 -1.0 -9.0 10.0
755 1 1 0 -1.0 -8.0 -10.0
756 1 1 0 -1.0 -8.0 10.0
757 1 1 0 -1.0 -7.0 -10.0
758 1 1 0 -1.0 -7.0 10.0
759 1 1 0 -1.0 -6.0 -10.0
760 1 1 0 -1.0 -6.0 10.0
761 1 1 0 -1.0 -5.0 -10.0
762 1 1 0 -1.0 -5.0 10.0
763 1 1 0 -1.0 -4.0 -10.0
764 1 1 0 -1.0 -4.0 10.0
765 1 1 0 -1.0 -3.0 -10.0
766 1 1 0 -1.0 -3.0 10.0
767 1 1 0 -1.0 3.0 -10.0
768 1 1 0 -1.0 3.0 10.0
769 1 1 0 -1.0 4.0 -10.0
770 1 1 0 -1.0 4.0 10.0
771 1 1 0 -1.0 5.0 -10.0
772 1 1 0 -1.0 5.0 10.0
773 1 1 0 -1.0 6.0 -10.0
774 1 1 0 -1.0 6.0 10.0
775 1 1 0 -1.0 7.0 -10.0
776 1 1 0 -1.0 7.0 10.0
777 1 1 0 -1.0 8.0 -10.0
778 1 1 0 -1.0 8.0 10.0
779 1 1 0 -1.0 9.0 -10.0
780 1 1 0 -1.0 9.0 10.0
781 1 1 0 -1.0 10.0 -10.0
782 1 1 0 -1.0 10.0 10.0
783 1 1 0 0.0 -10.0 -10.0
784 1 1 0 0.0 -10.0 10.0
785 1 1 0 0.0 -9.0 -10.0