Comment

958 atoms
99 bonds

2 atom types
1 bond types

-8 8 xlo xhi
-8 8 ylo yhi
-150 150 zlo zhi

Atoms

1 1 1 0 1.5 0.0 -10.0
2 1 1 0 1.5 0.0 -9.0
3 1 1 0 1.5 0.0 -8.0
4 1 1 0 1.5 0.0 -7.0
5 1 1 0 1.5 0.0 -6.0
6 1 1 0 1.5 0.0 -5.0
7 1 1 0 1.5 0.0 -4.0
8 1 1 0 1.5 0.0 -3.0
9 1 1 0 1.5 0.0 -2.0
10 1 1 0 1.5 0.0 -1.0
11 1 1 0 1.5 0.0 0.0
12 1 1 0 1.5 0.0 1.0
13 1 1 0 1.5 0.0 2.0
14 1 1 0 1.5 0.0 3.0
15 1 1 0 1.5 0.0 4.0
16 1 1 0 1.5 0.0 5.0
17 1 1 0 1.5 0.0 6.0
18 1 1 0 1.5 0.0 7.0
19 1 1 0 1.5 0.0 8.0
20 1 1 0 1.5 0.0 9.0
21 1 1 0 1.5 0.0 10.0
22 1 1 0 1.41667 0.493007 -10.0
23 1 1 0 1.41667 0.493007 -9.0
24 1 1 0 1.41667 0.493007 -8.0
25 1 1 0 1.41667 0.493007 -7.0
26 1 1 0 1.41667 0.493007 -6.0
27 1 1 0 1.41667 0.493007 -5.0
28 1 1 0 1.41667 0.493007 -4.0
29 1 1 0 1.41667 0.493007 -3.0
30 1 1 0 1.41667 0.493007 -2.0
31 1 1 0 1.41667 0.493007 -1.0
32 1 1 0 1.41667 0.493007 0.0
33 1 1 0 1.41667 0.493007 1.0
34 1 1 0 1.41667 0.493007 2.0
35 1 1 0 1.41667 0.493007 3.0
36 1 1 0 1.41667 0.493007 4.0
37 1 1 0 1.41667 0.493007 5.0
38 1 1 0 1.41667 0.493007 6.0
39 1 1 0 1.41667 0.493007 7.0
40 1 1 0 1.41667 0.493007 8.0
41 1 1 0 1.41667 0.493007 9.0
42 1 1 0 1.41667 0.493007 10.0
43 1 1 0 1.17593 0.931235 -10.0
44 1 1 0 1.17593 0.931235 -9.0
45 1 1 0 1.17593 0.931235 -8.0
46 1 1 0 1.17593 0.931235 -7.0
47 1 1 0 1.17593 0.931235 -6.0
48 1 1 0 1.17593 0.931235 -5.0
49 1 1 0 1.17593 0.931235 -4.0
50 1 1 0 1.17593 0.931235 -3.0
51 1 1 0 1.17593 0.931235 -2.0
52 1 1 0 1.17593 0.931235 -1.0
53 1 1 0 1.17593 0.931235 0.0
54 1 1 0 1.17593 0.931235 1.0
55 1 1 0 1.17593 0.931235 2.0
56 1 1 0 1.17593 0.931235 3.0
57 1 1 0 1.17593 0.931235 4.0
58 1 1 0 1.17593 0.931235 5.0
59 1 1 0 1.17593 0.931235 6.0
60 1 1 0 1.17593 0.931235 7.0
61 1 1 0 1.17593 0.931235 8.0
62 1 1 0 1.17593 0.931235 9.0
63 1 1 0 1.17593 0.931235 10.0
64 1 1 0 0.80452704 1.26599 -10.0
65 1 1 0 0.80452704 1.26599 -9.0
66 1 1 0 0.80452704 1.26599 -8.0
67 1 1 0 0.80452704 1.26599 -7.0
68 1 1 0 0.80452704 1.26599 -6.0
69 1 1 0 0.80452704 1.26599 -5.0
70 1 1 0 0.80452704 1.26599 -4.0
71 1 1 0 0.80452704 1.26599 -3.0
72 1 1 0 0.80452704 1.26599 -2.0
73 1 1 0 0.80452704 1.26599 -1.0
74 1 1 0 0.80452704 1.26599 0.0
75 1 1 0 0.80452704 1.26599 1.0
76 1 1 0 0.80452704 1.26599 2.0
77 1 1 0 0.80452704 1.26599 3.0
78 1 1 0 0.80452704 1.26599 4.0
79 1 1 0 0.80452704 1.26599 5.0
80 1 1 0 0.80452704 1.26599 6.0
81 1 1 0 0.80452704 1.26599 7.0
82 1 1 0 0.80452704 1.26599 8.0
83 1 1 0 0.80452704 1.26599 9.0
84 1 1 0 0.80452704 1.26599 10.0
85 1 1 0 0.343736 1.46008 -10.0
86 1 1 0 0.343736 1.46008 -9.0
87 1 1 0 0.343736 1.46008 -8.0
88 1 1 0 0.343736 1.46008 -7.0
89 1 1 0 0.343736 1.46008 -6.0
90 1 1 0 0.343736 1.46008 -5.0
91 1 1 0 0.343736 1.46008 -4.0
92 1 1 0 0.343736 1.46008 -3.0
93 1 1 0 0.343736 1.46008 -2.0
94 1 1 0 0.343736 1.46008 -1.0
95 1 1 0 0.343736 1.46008 0.0
96 1 1 0 0.343736 1.46008 1.0
97 1 1 0 0.343736 1.46008 2.0
98 1 1 0 0.343736 1.46008 3.0
99 1 1 0 0.343736 1.46008 4.0
100 1 1 0 0.343736 1.46008 5.0
101 1 1 0 0.343736 1.46008 6.0
102 1 1 0 0.343736 1.46008 7.0
103 1 1 0 0.343736 1.46008 8.0
104 1 1 0 0.343736 1.46008 9.0
105 1 1 0 0.343736 1.46008 10.0
106 1 1 0 -0.155248 1.49194 -10.0
107 1 1 0 -0.155248 1.49194 -9.0
108 1 1 0 -0.155248 1.49194 -8.0
109 1 1 0 -0.155248 1.49194 -7.0
110 1 1 0 -0.155248 1.49194 -6.0
111 1 1 0 -0.155248 1.49194 -5.0
112 1 1 0 -0.155248 1.49194 -4.0
113 1 1 0 -0.155248 1.49194 -3.0
114 1 1 0 -0.155248 1.49194 -2.0
115 1 1 0 -0.155248 1.49194 -1.0
116 1 1 0 -0.155248 1.49194 0.0
117 1 1 0 -0.155248 1.49194 1.0
118 1 1 0 -0.155248 1.49194 2.0
119 1 1 0 -0.155248 1.49194 3.0
120 1 1 0 -0.155248 1.49194 4.0
121 1 1 0 -0.155248 1.49194 5.0
122 1 1 0 -0.155248 1.49194 6.0
123 1 1 0 -0.155248 1.49194 7.0
124 1 1 0 -0.155248 1.49194 8.0
125 1 1 0 -0.155248 1.49194 9.0
126 1 1 0 -0.155248 1.49194 10.0
127 1 1 0 -0.636982 1.35803 -10.0
128 1 1 0 -0.636982 1.35803 -9.0
129 1 1 0 -0.636982 1.35803 -8.0
130 1 1 0 -0.636982 1.35803 -7.0
131 1 1 0 -0.636982 1.35803 -6.0
132 1 1 0 -0.636982 1.35803 -5.0
133 1 1 0 -0.636982 1.35803 -4.0
134 1 1 0 -0.636982 1.35803 -3.0
135 1 1 0 -0.636982 1.35803 -2.0
136 1 1 0 -0.636982 1.35803 -1.0
137 1 1 0 -0.636982 1.35803 0.0
138 1 1 0 -0.636982 1.35803 1.0
139 1 1 0 -0.636982 1.35803 2.0
140 1 1 0 -0.636982 1.35803 3.0
141 1 1 0 -0.636982 1.35803 4.0
142 1 1 0 -0.636982 1.35803 5.0
143 1 1 0 -0.636982 1.35803 6.0
144 1 1 0 -0.636982 1.35803 7.0
145 1 1 0 -0.636982 1.35803 8.0
146 1 1 0 -0.636982 1.35803 9.0
147 1 1 0 -0.636982 1.35803 10.0
148 1 1 0 -1.04794 1.07323 -10.0
149 1 1 0 -1.04794 1.07323 -9.0
150 1 1 0 -1.04794 1.07323 -8.0
151 1 1 0 -1.04794 1.07323 -7.0
152 1 1 0 -1.04794 1.07323 -6.0
153 1 1 0 -1.04794 1.07323 -5.0
154 1 1 0 -1.04794 1.07323 -4.0
155 1 1 0 -1.04794 1.07323 -3.0
156 1 1 0 -1.04794 1.07323 -2.0
157 1 1 0 -1.04794 1.07323 -1.0
158 1 1 0 -1.04794 1.07323 0.0
159 1 1 0 -1.04794 1.07323 1.0
160 1 1 0 -1.04794 1.07323 2.0
161 1 1 0 -1.04794 1.07323 3.0
162 1 1 0 -1.04794 1.07323 4.0
163 1 1 0 -1.04794 1.07323 5.0
164 1 1 0 -1.04794 1.07323 6.0
165 1 1 0 -1.04794 1.07323 7.0
166 1 1 0 -1.04794 1.07323 8.0
167 1 1 0 -1.04794 1.07323 9.0
168 1 1 0 -1.04794 1.07323 10.0
169 1 1 0 -1.34246 0.66917706 -10.0
170 1 1 0 -1.34246 0.66917706 -9.0
171 1 1 0 -1.34246 0.66917706 -8.0
172 1 1 0 -1.34246 0.66917706 -7.0
173 1 1 0 -1.34246 0.66917706 -6.0
174 1 1 0 -1.34246 0.66917706 -5.0
175 1 1 0 -1.34246 0.66917706 -4.0
176 1 1 0 -1.34246 0.66917706 -3.0
177 1 1 0 -1.34246 0.66917706 -2.0
178 1 1 0 -1.34246 0.66917706 -1.0
179 1 1 0 -1.34246 0.66917706 0.0
180 1 1 0 -1.34246 0.66917706 1.0
181 1 1 0 -1.34246 0.66917706 2.0
182 1 1 0 -1.34246 0.66917706 3.0
183 1 1 0 -1.34246 0.66917706 4.0
184 1 1 0 -1.34246 0.66917706 5.0
185 1 1 0 -1.34246 0.66917706 6.0
186 1 1 0 -1.34246 0.66917706 7.0
187 1 1 0 -1.34246 0.66917706 8.0
188 1 1 0 -1.34246 0.66917706 9.0
189 1 1 0 -1.34246 0.66917706 10.0
190 1 1 0 -1.48782 0.190773 -10.0
191 1 1 0 -1.48782 0.190773 -9.0
192 1 1 0 -1.48782 0.190773 -8.0
193 1 1 0 -1.48782 0.190773 -7.0
194 1 1 0 -1.48782 0.190773 -6.0
195 1 1 0 -1.48782 0.190773 -5.0
196 1 1 0 -1.48782 0.190773 -4.0
197 1 1 0 -1.48782 0.190773 -3.0
198 1 1 0 -1.48782 0.190773 -2.0
199 1 1 0 -1.48782 0.190773 -1.0
200 1 1 0 -1.48782 0.190773 0.0
201 1 1 0 -1.48782 0.190773 1.0
202 1 1 0 -1.48782 0.190773 2.0
203 1 1 0 -1.48782 0.190773 3.0
204 1 1 0 -1.48782 0.190773 4.0
205 1 1 0 -1.48782 0.190773 5.0
206 1 1 0 -1.48782 0.190773 6.0
207 1 1 0 -1.48782 0.190773 7.0
208 1 1 0 -1.48782 0.190773 8.0
209 1 1 0 -1.48782 0.190773 9.0
210 1 1 0 -1.48782 0.190773 10.0
211 1 1 0 -1.46786 -0.308829 -10.0
212 1 1 0 -1.46786 -0.308829 -9.0
213 1 1 0 -1.46786 -0.308829 -8.0
214 1 1 0 -1.46786 -0.308829 -7.0
215 1 1 0 -1.46786 -0.308829 -6.0
216 1 1 0 -1.46786 -0.308829 -5.0
217 1 1 0 -1.46786 -0.308829 -4.0
218 1 1 0 -1.46786 -0.308829 -3.0
219 1 1 0 -1.46786 -0.308829 -2.0
220 1 1 0 -1.46786 -0.308829 -1.0
221 1 1 0 -1.46786 -0.308829 0.0
222 1 1 0 -1.46786 -0.308829 1.0
223 1 1 0 -1.46786 -0.308829 2.0
224 1 1 0 -1.46786 -0.308829 3.0
225 1 1 0 -1.46786 -0.308829 4.0
226 1 1 0 -1.46786 -0.308829 5.0
227 1 1 0 -1.46786 -0.308829 6.0
228 1 1 0 -1.46786 -0.308829 7.0
229 1 1 0 -1.46786 -0.308829 8.0
230 1 1 0 -1.46786 -0.308829 9.0
231 1 1 0 -1.46786 -0.308829 10.0
232 1 1 0 -1.2848101 -0.774116 -10.0
233 1 1 0 -1.2848101 -0.774116 -9.0
234 1 1 0 -1.2848101 -0.774116 -8.0
235 1 1 0 -1.2848101 -0.774116 -7.0
236 1 1 0 -1.2848101 -0.774116 -6.0
237 1 1 0 -1.2848101 -0.774116 -5.0
238 1 1 0 -1.2848101 -0.774116 -4.0
239 1 1 0 -1.2848101 -0.774116 -3.0
240 1 1 0 -1.2848101 -0.774116 -2.0
241 1 1 0 -1.2848101 -0.774116 -1.0
242 1 1 0 -1.2848101 -0.774116 0.0
243 1 1 0 -1.2848101 -0.774116 1.0
244 1 1 0 -1.2848101 -0.774116 2.0
245 1 1 0 -1.2848101 -0.774116 3.0
246 1 1 0 -1.2848101 -0.774116 4.0
247 1 1 0 -1.2848101 -0.774116 5.0
248 1 1 0 -1.2848101 -0.774116 6.0
249 1 1 0 -1.2848101 -0.774116 7.0
250 1 1 0 -1.2848101 -0.774116 8.0
251 1 1 0 -1.2848101 -0.774116 9.0
252 1 1 0 -1.2848101 -0.774116 10.0
253 1 1 0 -0.959005 -1.15339 -10.0
254 1 1 0 -0.959005 -1.15339 -9.0
255 1 1 0 -0.959005 -1.15339 -8.0
256 1 1 0 -0.959005 -1.15339 -7.0
257 1 1 0 -0.959005 -1.15339 -6.0
258 1 1 0 -0.959005 -1.15339 -5.0
259 1 1 0 -0.959005 -1.15339 -4.0
260 1 1 0 -0.959005 -1.15339 -3.0
261 1 1 0 -0.959005 -1.15339 -2.0
262 1 1 0 -0.959005 -1.15339 -1.0
263 1 1 0 -0.959005 -1.15339 0.0
264 1 1 0 -0.959005 -1.15339 1.0
265 1 1 0 -0.959005 -1.15339 2.0
266 1 1 0 -0.959005 -1.15339 3.0
267 1 1 0 -0.959005 -1.15339 4.0
268 1 1 0 -0.959005 -1.15339 5.0
269 1 1 0 -0.959005 -1.15339 6.0
270 1 1 0 -0.959005 -1.15339 7.0
271 1 1 0 -0.959005 -1.15339 8.0
272 1 1 0 -0.959005 -1.15339 9.0
273 1 1 0 -0.959005 -1.15339 10.0
274 1 1 0 -0.526641 -1.40451 -10.0
275 1 1 0 -0.526641 -1.40451 -9.0
276 1 1 0 -0.526641 -1.40451 -8.0
277 1 1 0 -0.526641 -1.40451 -7.0
278 1 1 0 -0.526641 -1.40451 -6.0
279 1 1 0 -0.526641 -1.40451 -5.0
280 1 1 0 -0.526641 -1.40451 -4.0
281 1 1 0 -0.526641 -1.40451 -3.0
282 1 1 0 -0.526641 -1.40451 -2.0
283 1 1 0 -0.526641 -1.40451 -1.0
284 1 1 0 -0.526641 -1.40451 0.0
285 1 1 0 -0.526641 -1.40451 1.0
286 1 1 0 -0.526641 -1.40451 2.0
287 1 1 0 -0.526641 -1.40451 3.0
288 1 1 0 -0.526641 -1.40451 4.0
289 1 1 0 -0.526641 -1.40451 5.0
290 1 1 0 -0.526641 -1.40451 6.0
291 1 1 0 -0.526641 -1.40451 7.0
292 1 1 0 -0.526641 -1.40451 8.0
293 1 1 0 -0.526641 -1.40451 9.0
294 1 1 0 -0.526641 -1.40451 10.0
295 1 1 0 -0.0357608 -1.49957 -10.0
296 1 1 0 -0.0357608 -1.49957 -9.0
297 1 1 0 -0.0357608 -1.49957 -8.0
298 1 1 0 -0.0357608 -1.49957 -7.0
299 1 1 0 -0.0357608 -1.49957 -6.0
300 1 1 0 -0.0357608 -1.49957 -5.0
301 1 1 0 -0.0357608 -1.49957 -4.0
302 1 1 0 -0.0357608 -1.49957 -3.0
303 1 1 0 -0.0357608 -1.49957 -2.0
304 1 1 0 -0.0357608 -1.49957 -1.0
305 1 1 0 -0.0357608 -1.49957 0.0
306 1 1 0 -0.0357608 -1.49957 1.0
307 1 1 0 -0.0357608 -1.49957 2.0
308 1 1 0 -0.0357608 -1.49957 3.0
309 1 1 0 -0.0357608 -1.49957 4.0
310 1 1 0 -0.0357608 -1.49957 5.0
311 1 1 0 -0.0357608 -1.49957 6.0
312 1 1 0 -0.0357608 -1.49957 7.0
313 1 1 0 -0.0357608 -1.49957 8.0
314 1 1 0 -0.0357608 -1.49957 9.0
315 1 1 0 -0.0357608 -1.49957 10.0
316 1 1 0 0.459092 -1.42802 -10.0
317 1 1 0 0.459092 -1.42802 -9.0
318 1 1 0 0.459092 -1.42802 -8.0
319 1 1 0 0.459092 -1.42802 -7.0
320 1 1 0 0.459092 -1.42802 -6.0
321 1 1 0 0.459092 -1.42802 -5.0
322 1 1 0 0.459092 -1.42802 -4.0
323 1 1 0 0.459092 -1.42802 -3.0
324 1 1 0 0.459092 -1.42802 -2.0
325 1 1 0 0.459092 -1.42802 -1.0
326 1 1 0 0.459092 -1.42802 0.0
327 1 1 0 0.459092 -1.42802 1.0
328 1 1 0 0.459092 -1.42802 2.0
329 1 1 0 0.459092 -1.42802 3.0
330 1 1 0 0.459092 -1.42802 4.0
331 1 1 0 0.459092 -1.42802 5.0
332 1 1 0 0.459092 -1.42802 6.0
333 1 1 0 0.459092 -1.42802 7.0
334 1 1 0 0.459092 -1.42802 8.0
335 1 1 0 0.459092 -1.42802 9.0
336 1 1 0 0.459092 -1.42802 10.0
337 1 1 0 0.90293497 -1.19779 -10.0
338 1 1 0 0.90293497 -1.19779 -9.0
339 1 1 0 0.90293497 -1.19779 -8.0
340 1 1 0 0.90293497 -1.19779 -7.0
341 1 1 0 0.90293497 -1.19779 -6.0
342 1 1 0 0.90293497 -1.19779 -5.0
343 1 1 0 0.90293497 -1.19779 -4.0
344 1 1 0 0.90293497 -1.19779 -3.0
345 1 1 0 0.90293497 -1.19779 -2.0
346 1 1 0 0.90293497 -1.19779 -1.0
347 1 1 0 0.90293497 -1.19779 0.0
348 1 1 0 0.90293497 -1.19779 1.0
349 1 1 0 0.90293497 -1.19779 2.0
350 1 1 0 0.90293497 -1.19779 3.0
351 1 1 0 0.90293497 -1.19779 4.0
352 1 1 0 0.90293497 -1.19779 5.0
353 1 1 0 0.90293497 -1.19779 6.0
354 1 1 0 0.90293497 -1.19779 7.0
355 1 1 0 0.90293497 -1.19779 8.0
356 1 1 0 0.90293497 -1.19779 9.0
357 1 1 0 0.90293497 -1.19779 10.0
358 1 1 0 1.2464501 -0.83448 -10.0
359 1 1 0 1.2464501 -0.83448 -9.0
360 1 1 0 1.2464501 -0.83448 -8.0
361 1 1 0 1.2464501 -0.83448 -7.0
362 1 1 0 1.2464501 -0.83448 -6.0
363 1 1 0 1.2464501 -0.83448 -5.0
364 1 1 0 1.2464501 -0.83448 -4.0
365 1 1 0 1.2464501 -0.83448 -3.0
366 1 1 0 1.2464501 -0.83448 -2.0
367 1 1 0 1.2464501 -0.83448 -1.0
368 1 1 0 1.2464501 -0.83448 0.0
369 1 1 0 1.2464501 -0.83448 1.0
370 1 1 0 1.2464501 -0.83448 2.0
371 1 1 0 1.2464501 -0.83448 3.0
372 1 1 0 1.2464501 -0.83448 4.0
373 1 1 0 1.2464501 -0.83448 5.0
374 1 1 0 1.2464501 -0.83448 6.0
375 1 1 0 1.2464501 -0.83448 7.0
376 1 1 0 1.2464501 -0.83448 8.0
377 1 1 0 1.2464501 -0.83448 9.0
378 1 1 0 1.2464501 -0.83448 10.0
379 1 1 0 -7.5 -7.5 -10.0
380 1 1 0 -7.5 -7.5 10.0
381 1 1 0 -7.5 -6.5 -10.0
382 1 1 0 -7.5 -6.5 10.0
383 1 1 0 -7.5 -5.5 -10.0
384 1 1 0 -7.5 -5.5 10.0
385 1 1 0 -7.5 -4.5 -10.0
386 1 1 0 -7.5 -4.5 10.0
387 1 1 0 -7.5 -3.5 -10.0
388 1 1 0 -7.5 -3.5 10.0
389 1 1 0 -7.5 -2.5 -10.0
390 1 1 0 -7.5 -2.5 10.0
391 1 1 0 -7.5 -1.5 -10.0
392 1 1 0 -7.5 -1.5 10.0
393 1 1 0 -7.5 -0.5 -10.0
394 1 1 0 -7.5 -0.5 10.0
395 1 1 0 -7.5 0.5 -10.0
396 1 1 0 -7.5 0.5 10.0
397 1 1 0 -7.5 1.5 -10.0
398 1 1 0 -7.5 1.5 10.0
399 1 1 0 -7.5 2.5 -10.0
400 1 1 0 -7.5 2.5 10.0
401 1 1 0 -7.5 3.5 -10.0
402 1 1 0 -7.5 3.5 10.0
403 1 1 0 -7.5 4.5 -10.0
404 1 1 0 -7.5 4.5 10.0
405 1 1 0 -7.5 5.5 -10.0
406 1 1 0 -7.5 5.5 10.0
407 1 1 0 -7.5 6.5 -10.0
408 1 1 0 -7.5 6.5 10.0
409 1 1 0 -7.5 7.5 -10.0
410 1 1 0 -7.5 7.5 10.0
411 1 1 0 -6.5 -7.5 -10.0
412 1 1 0 -6.5 -7.5 10.0
413 1 1 0 -6.5 -6.5 -10.0
414 1 1 0 -6.5 -6.5 10.0
415 1 1 0 -6.5 -5.5 -10.0
416 1 1 0 -6.5 -5.5 10.0
417 1 1 0 -6.5 -4.5 -10.0
418 1 1 0 -6.5 -4.5 10.0
419 1 1 0 -6.5 -3.5 -10.0
420 1 1 0 -6.5 -3.5 10.0
421 1 1 0 -6.5 -2.5 -10.0
422 1 1 0 -6.5 -2.5 10.0
423 1 1 0 -6.5 -1.5 -10.0
424 1 1 0 -6.5 -1.5 10.0
425 1 1 0 -6.5 -0.5 -10.0
426 1 1 0 -6.5 -0.5 10.0
427 1 1 0 -6.5 0.5 -10.0
428 1 1 0 -6.5 0.5 10.0
429 1 1 0 -6.5 1.5 -10.0
430 1 1 0 -6.5 1.5 10.0
431 1 1 0 -6.5 2.5 -10.0
432 1 1 0 -6.5 2.5 10.0
433 1 1 0 -6.5 3.5 -10.0
434 1 1 0 -6.5 3.5 10.0
435 1 1 0 -6.5 4.5 -10.0
436 1 1 0 -6.5 4.5 10.0
437 1 1 0 -6.5 5.5 -10.0
438 1 1 0 -6.5 5.5 10.0
439 1 1 0 -6.5 6.5 -10.0
440 1 1 0 -6.5 6.5 10.0
441 1 1 0 -6.5 7.5 -10.0
442 1 1 0 -6.5 7.5 10.0
443 1 1 0 -5.5 -7.5 -10.0
444 1 1 0 -5.5 -7.5 10.0
445 1 1 0 -5.5 -6.5 -10.0
446 1 1 0 -5.5 -6.5 10.0
447 1 1 0 -5.5 -5.5 -10.0
448 1 1 0 -5.5 -5.5 10.0
449 1 1 0 -5.5 -4.5 -10.0
450 1 1 0 -5.5 -4.5 10.0
451 1 1 0 -5.5 -3.5 -10.0
452 1 1 0 -5.5 -3.5 10.0
453 1 1 0 -5.5 -2.5 -10.0
454 1 1 0 -5.5 -2.5 10.0
455 1 1 0 -5.5 -1.5 -10.0
456 1 1 0 -5.5 -1.5 10.0
457 1 1 0 -5.5 -0.5 -10.0
458 1 1 0 -5.5 -0.5 10.0
459 1 1 0 -5.5 0.5 -10.0
460 1 1 0 -5.5 0.5 10.0
461 1 1 0 -5.5 1.5 -10.0
462 1 1 0 -5.5 1.5 10.0
463 1 1 0 -5.5 2.5 -10.0
464 1 1 0 -5.5 2.5 10.0
465 1 1 0 -5.5 3.5 -10.0
466 1 1 0 -5.5 3.5 10.0
467 1 1 0 -5.5 4.5 -10.0
468 1 1 0 -5.5 4.5 10.0
469 1 1 0 -5.5 5.5 -10.0
470 1 1 0 -5.5 5.5 10.0
471 1 1 0 -5.5 6.5 -10.0
472 1 1 0 -5.5 6.5 10.0
473 1 1 0 -5.5 7.5 -10.0
474 1 1 0 -5.5 7.5 10.0
475 1 1 0 -4.5 -7.5 -10.0
476 1 1 0 -4.5 -7.5 10.0
477 1 1 0 -4.5 -6.5 -10.0
478 1 1 0 -4.5 -6.5 10.0
479 1 1 0 -4.5 -5.5 -10.0
480 1 1 0 -4.5 -5.5 10.0
481 1 1 0 -4.5 -4.5 -10.0
482 1 1 0 -4.5 -4.5 10.0
483 1 1 0 -4.5 -3.5 -10.0
484 1 1 0 -4.5 -3.5 10.0
485 1 1 0 -4.5 -2.5 -10.0
486 1 1 0 -4.5 -2.5 10.0
487 1 1 0 -4.5 -1.5 -10.0
488 1 1 0 -4.5 -1.5 10.0
489 1 1 0 -4.5 -0.5 -10.0
490 1 1 0 -4.5 -0.5 10.0
491 1 1 0 -4.5 0.5 -10.0
492 1 1 0 -4.5 0.5 10.0
493 1 1 0 -4.5 1.5 -10.0
494 1 1 0 -4.5 1.5 10.0
495 1 1 0 -4.5 2.5 -10.0
496 1 1 0 -4.5 2.5 10.0
497 1 1 0 -4.5 3.5 -10.0
498 1 1 0 -4.5 3.5 10.0
499 1 1 0 -4.5 4.5 -10.0
500 1 1 0 -4.5 4.5 10.0
501 1 1 0 -4.5 5.5 -10.0
502 1 1 0 -4.5 5.5 10.0
503 1 1 0 -4.5 6.5 -10.0
504 1 1 0 -4.5 6.5 10.0
505 1 1 0 -4.5 7.5 -10.0
506 1 1 0 -4.5 7.5 10.0
507 1 1 0 -3.5 -7.5 -10.0
508 1 1 0 -3.5 -7.5 10.0
509 1 1 0 -3.5 -6.5 -10.0
510 1 1 0 -3.5 -6.5 10.0
511 1 1 0 -3.5 -5.5 -10.0
512 1 1 0 -3.5 -5.5 10.0
513 1 1 0 -3.5 -4.5 -10.0
514 1 1 0 -3.5 -4.5 10.0
515 1 1 0 -3.5 -3.5 -10.0
516 1 1 0 -3.5 -3.5 10.0
517 1 1 0 -3.5 -2.5 -10.0
518 1 1 0 -3.5 -2.5 10.0
519 1 1 0 -3.5 -1.5 -10.0
520 1 1 0 -3.5 -1.5 10.0
521 1 1 0 -3.5 -0.5 -10.0
522 1 1 0 -3.5 -0.5 10.0
523 1 1 0 -3.5 0.5 -10.0
524 1 1 0 -3.5 0.5 10.0
525 1 1 0 -3.5 1.5 -10.0
526 1 1 0 -3.5 1.5 10.0
527 1 1 0 -3.5 2.5 -10.0
528 1 1 0 -3.5 2.5 10.0
529 1 1 0 -3.5 3.5 -10.0
530 1 1 0 -3.5 3.5 10.0
531 1 1 0 -3.5 4.5 -10.0
532 1 1 0 -3.5 4.5 10.0
533 1 1 0 -3.5 5.5 -10.0
534 1 1 0 -3.5 5.5 10.0
535 1 1 0 -3.5 6.5 -10.0
536 1 1 0 -3.5 6.5 10.0
537 1 1 0 -3.5 7.5 -10.0
538 1 1 0 -3.5 7.5 10.0
539 1 1 0 -2.5 -7.5 -10.0
540 1 1 0 -2.5 -7.5 10.0
541 1 1 0 -2.5 -6.5 -10.0
542 1 1 0 -2.5 -6.5 10.0
543 1 1 0 -2.5 -5.5 -10.0
544 1 1 0 -2.5 -5.5 10.0
545 1 1 0 -2.5 -4.5 -10.0
546 1 1 0 -2.5 -4.5 10.0
547 1 1 0 -2.5 -3.5 -10.0
548 1 1 0 -2.5 -3.5 10.0
549 1 1 0 -2.5 -2.5 -10.0
550 1 1 0 -2.5 -2.5 10.0
551 1 1 0 -2.5 -1.5 -10.0
552 1 1 0 -2.5 -1.5 10.0
553 1 1 0 -2.5 -0.5 -10.0
554 1 1 0 -2.5 -0.5 10.0
555 1 1 0 -2.5 0.5 -10.0
556 1 1 0 -2.5 0.5 10.0
557 1 1 0 -2.5 1.5 -10.0
558 1 1 0 -2.5 1.5 10.0
559 1 1 0 -2.5 2.5 -10.0
560 1 1 0 -2.5 2.5 10.0
561 1 1 0 -2.5 3.5 -10.0
562 1 1 0 -2.5 3.5 10.0
563 1 1 0 -2.5 4.5 -10.0
564 1 1 0 -2.5 4.5 10.0
565 1 1 0 -2.5 5.5 -10.0
566 1 1 0 -2.5 5.5 10.0
567 1 1 0 -2.5 6.5 -10.0
568 1 1 0 -2.5 6.5 10.0
569 1 1 0 -2.5 7.5 -10.0
570 1 1 0 -2.5 7.5 10.0
571 1 1 0 -1.5 -7.5 -10.0
572 1 1 0 -1.5 -7.5 10.0
573 1 1 0 -1.5 -6.5 -10.0
574 1 1 0 -1.5 -6.5 10.0
575 1 1 0 -1.5 -5.5 -10.0
576 1 1 0 -1.5 -5.5 10.0
577 1 1 0 -1.5 -4.5 -10.0
578 1 1 0 -1.5 -4.5 10.0
579 1 1 0 -1.5 -3.5 -10.0
580 1 1 0 -1.5 -3.5 10.0
581 1 1 0 -1.5 -2.5 -10.0
582 1 1 0 -1.5 -2.5 10.0
583 1 1 0 -1.5 2.5 -10.0
584 1 1 0 -1.5 2.5 10.0
585 1 1 0 -1.5 3.5 -10.0
586 1 1 0 -1.5 3.5 10.0
587 1 1 0 -1.5 4.5 -10.0
588 1 1 0 -1.5 4.5 10.0
589 1 1 0 -1.5 5.5 -10.0
590 1 1 0 -1.5 5.5 10.0
591 1 1 0 -1.5 6.5 -10.0
592 1 1 0 -1.5 6.5 10.0
593 1 1 0 -1.5 7.5 -10.0
594 1 1 0 -1.5 7.5 10.0
595 1 1 0 -0.5 -7.5 -10.0
596 1 1 0 -0.5 -7.5 10.0
597 1 1 0 -0.5 -6.5 -10.0
598 1 1 0 -0.5 -6.5 10.0
599 1 1 0 -0.5 -5.5 -10.0
600 1 1 0 -0.5 -5.5 10.0
601 1 1 0 -0.5 -4.5 -10.0
602 1 1 0 -0.5 -4.5 10.0
603 1 1 0 -0.5 -3.5 -10.0
604 1 1 0 -0.5 -3.5 10.0
605 1 1 0 -0.5 -2.5 -10.0
606 1 1 0 -0.5 -2.5 10.0
607 1 1 0 -0.5 2.5 -10.0
608 1 1 0 -0.5 2.5 10.0
609 1 1 0 -0.5 3.5 -10.0
610 1 1 0 -0.5 3.5 10.0
611 1 1 0 -0.5 4.5 -10.0
612 1 1 0 -0.5 4.5 10.0
613 1 1 0 -0.5 5.5 -10.0
614 1 1 0 -0.5 5.5 10.0
615 1 1 0 -0.5 6.5 -10.0
616 1 1 0 -0.5 6.5 10.0
617 1 1 0 -0.5 7.5 -10.0
618 1 1 0 -0.5 7.5 10.0
619 1 1 0 0.5 -7.5 -10.0
620 1 1 0 0.5 -7.5 10.0
621 1 1 0 0.5 -6.5 -10.0
622 1 1 0 0.5 -6.5 10.0
623 1 1 0 0.5 -5.5 -10.0
624 1 1 0 0.5 -5.5 10.0
625 1 1 0 0.5 -4.5 -10.0
626 1 1 0 0.5 -4.5 10.0
627 1 1 0 0.5 -3.5 -10.0
628 1 1 0 0.5 -3.5 10.0
629 1 1 0 0.5 -2.5 -10.0
630 1 1 0 0.5 -2.5 10.0
631 1 1 0 0.5 2.5 -10.0
632 1 1 0 0.5 2.5 10.0
633 1 1 0 0.5 3.5 -10.0
634 1 1 0 0.5 3.5 10.0
635 1 1 0 0.5 4.5 -10.0
636 1 1 0 0.5 4.5 10.0
637 1 1 0 0.5 5.5 -10.0
638 1 1 0 0.5 5.5 10.0
639 1 1 0 0.5 6.5 -10.0
640 1 1 0 0.5 6.5 10.0
641 1 1 0 0.5 7.5 -10.0
642 1 1 0 0.5 7.5 10.0
643 1 1 0 1.5 -7.5 -10.0
644 1 1 0 1.5 -7.5 10.0
645 1 1 0 1.5 -6.5 -10.0
646 1 1 0 1.5 -6.5 10.0
647 1 1 0 1.5 -5.5 -10.0
648 1 1 0 1.5 -5.5 10.0
649 1 1 0 1.5 -4.5 -10.0
650 1 1 0 1.5 -4.5 10.0
651 1 1 0 1.5 -3.5 -10.0
652 1 1 0 1.5 -3.5 10.0
653 1 1 0 1.5 -2.5 -10.0
654 1 1 0 1.5 -2.5 10.0
655 1 1 0 1.5 2.5 -10.0
656 1 1 0 1.5 2.5 10.0
657 1 1 0 1.5 3.5 -10.0
658 1 1 0 1.5 3.5 10.0
659 1 1 0 1.5 4.5 -10.0
660 1 1 0 1.5 4.5 10.0
661 1 1 0 1.5 5.5 -10.0
662 1 1 0 1.5 5.5 10.0
663 1 1 0 1.5 6.5 -10.0
664 1 1 0 1.5 6.5 10.0
665 1 1 0 1.5 7.5 -10.0
666 1 1 0 1.5 7.5 10.0
667 1 1 0 2.5 -7.5 -10.0
668 1 1 0 2.5 -7.5 10.0
669 1 1 0 2.5 -6.5 -10.0
670 1 1 0 2.5 -6.5 10.0
671 1 1 0 2.5 -5.5 -10.0
672 1 1 0 2.5 -5.5 10.0
673 1 1 0 2.5 -4.5 -10.0
674 1 1 0 2.5 -4.5 10.0
675 1 1 0 2.5 -3.5 -10.0
676 1 1 0 2.5 -3.5 10.0
677 1 1 0 2.5 -2.5 -10.0
678 1 1 0 2.5 -2.5 10.0
679 1 1 0 2.5 -1.5 -10.0
680 1 1 0 2.5 -1.5 10.0
681 1 1 0 2.5 -0.5 -10.0
682 1 1 0 2.5 -0.5 10.0
683 1 1 0 2.5 0.5 -10.0
684 1 1 0 2.5 0.5 10.0
685 1 1 0 2.5 1.5 -10.0
686 1 1 0 2.5 1.5 10.0
687 1 1 0 2.5 2.5 -10.0
688 1 1 0 2.5 2.5 10.0
689 1 1 0 2.5 3.5 -10.0
690 1 1 0 2.5 3.5 10.0
691 1 1 0 2.5 4.5 -10.0
692 1 1 0 2.5 4.5 10.0
693 1 1 0 2.5 5.5 -10.0
694 1 1 0 2.5 5.5 10.0
695 1 1 0 2.5 6.5 -10.0
696 1 1 0 2.5 6.5 10.0
697 1 1 0 2.5 7.5 -10.0
698 1 1 0 2.5 7.5 10.0
699 1 1 0 3.5 -7.5 -10.0
700 1 1 0 3.5 -7.5 10.0
701 1 1 0 3.5 -6.5 -10.0
702 1 1 0 3.5 -6.5 10.0
703 1 1 0 3.5 -5.5 -10.0
704 1 1 0 3.5 -5.5 10.0
705 1 1 0 3.5 -4.5 -10.0
706 1 1 0 3.5 -4.5 10.0
707 1 1 0 3.5 -3.5 -10.0
708 1 1 0 3.5 -3.5 10.0
709 1 1 0 3.5 -2.5 -10.0
710 1 1 0 3.5 -2.5 10.0
711 1 1 0 3.5 -1.5 -10.0
712 1 1 0 3.5 -1.5 10.0
713 1 1 0 3.5 -0.5 -10.0
714 1 1 0 3.5 -0.5 10.0
715 1 1 0 3.5 0.5 -10.0
716 1 1 0 3.5 0.5 10.0
717 1 1 0 3.5 1.5 -10.0
718 1 1 0 3.5 1.5 10.0
719 1 1 0 3.5 2.5 -10.0
720 1 1 0 3.5 2.5 10.0
721 1 1 0 3.5 3.5 -10.0
722 1 1 0 3.5 3.5 10.0
723 1 1 0 3.5 4.5 -10.0
724 1 1 0 3.5 4.5 10.0
725 1 1 0 3.5 5.5 -10.0
726 1 1 0 3.5 5.5 10.0
727 1 1 0 3.5 6.5 -10.0
728 1 1 0 3.5 6.5 10.0
729 1 1 0 3.5 7.5 -10.0
730 1 1 0 3.5 7.5 10.0
731 1 1 0 4.5 -7.5 -10.0
732 1 1 0 4.5 -7.5 10.0
733 1 1 0 4.5 -6.5 -10.0
734 1 1 0 4.5 -6.5 10.0
735 1 1 0 4.5 -5.5 -10.0
736 1 1 0 4.5 -5.5 10.0
737 1 1 0 4.5 -4.5 -10.0
738 1 1 0 4.5 -4.5 10.0
739 1 1 0 4.5 -3.5 -10.0
740 1 1 0 4.5 -3.5 10.0
741 1 1 0 4.5 -2.5 -10.0
742 1 1 0 4.5 -2.5 10.0
743 1 1 0 4.5 -1.5 -10.0
744 1 1 0 4.5 -1.5 10.0
745 1 1 0 4.5 -0.5 -10.0
746 1 1 0 4.5 -0.5 10.0
747 1 1 0 4.5 0.5 -10.0
748 1 1 0 4.5 0.5 10.0
749 1 1 0 4.5 1.5 -10.0
750 1 1 0 4.5 1.5 10.0
751 1 1 0 4.5 2.5 -10.0
752 1 1 0 4.5 2.5 10.0
753 1 1 0 4.5 3.5 -10.0
754 1 1 0 4.5 3.5 10.0
755 1 1 0 4.5 4.5 -10.0
756 1 1 0 4.5 4.5 10.0
757 1 1 0 4.5 5.5 -10.0
758 1 1 0 4.5 5.5 10.0
759 1 1 0 4.5 6.5 -10.0
760 1 1 0 4.5 6.5 10.0
761 1 1 0 4.5 7.5 -10.0
762 1 1 0 4.5 7.5 10.0
763 1 1 0 5.5 -7.5 -10.0
764 1 1 0 5.5 -7.5 10.0
765 1 1 0 5.5 -6.5 -10.0
766 1 1 0 5.5 -6.5 10.0
767 1 1 0 5.5 -5.5 -10.0
768 1 1 0 5.5 -5.5 10.0
769 1 1 0 5.5 -4.5 -10.0
770 1 1 0 5.5 -4.5 10.0
771 1 1 0 5.5 -3.5 -10.0
772 1 1 0 5.5 -3.5 10.0
773 1 1 0 5.5 -2.5 -10.0
774 1 1 0 5.5 -2.5 10.0
775 1 1 0 5.5 -1.5 -10.0
776 1 1 0 5.5 -1.5 10.0
777 1 1 0 5.5 -0.5 -10.0
778 1 1 0 5.5 -0.5 10.0
779 1 1 0 5.5 0.5 -10.0
780 1 1 0 5.5 0.5 10.0
781 1 1 0 5.5 1.5 -10.0
782 1 1 0 5.5 1.5 10.0
783 1 1 0 5.5 2.5 -10.0
784 1 1 0 5.5 2.5 10.0
785 1 1 0 5.5 3.5 -10.0
786 1 1 0 5.5 3.5 10.0
787 1 1 0 5.5 4.5 -10.0
788 1 1 0 5.5 4.5 10.0
789 1 1 0 5.5 5.5 -10.0
790 1 1 0 5.5 5.5 10.0
791 1 1 0 5.5 6.5 -10.0
792 1 1 0 5.5 6.5 10.0
793 1 1 0 5.5 7.5 -10.0
794 1 1 0 5.5 7.5 10.0
795 1 1 0 6.5 -7.5 -10.0
796 1 1 0 6.5 -7.5 10.0
797 1 1 0 6.5 -6.5 -10.0
798 1 1 0 6.5 -6.5 10.0
799 1 1 0 6.5 -5.5 -10.0
800 1 1 0 6.5 -5.5 10.0
801 1 1 0 6.5 -4.5 -10.0
802 1 1 0 6.5 -4.5 10.0
803 1 1 0 6.5 -3.5 -10.0
804 1 1 0 6.5 -3.5 10.0
805 1 1 0 6.5 -2.5 -10.0
806 1 1 0 6.5 -2.5 10.0
807 1 1 0 6.5 -1.5 -10.0
808 1 1 0 6.5 -1.5 10.0
809 1 1 0 6.5 -0.5 -10.0
810 1 1 0 6.5 -0.5 10.0
811 1 1 0 6.5 0.5 -10.0
812 1 1 0 6.5 0.5 10.0
813 1 1 0 6.5 1.5 -10.0
814 1 1 0 6.5 1.5 10.0
815 1 1 0 6.5 2.5 -10.0
816 1 1 0 6.5 2.5 10.0
817 1 1 0 6.5 3.5 -10.0
818 1 1 0 6.5 3.5 10.0
819 1 1 0 6.5 4.5 -10.0
820 1 1 0 6.5 4.5 10.0
821 1 1 0 6.5 5.5 -10.0
822 1 1 0 6.5 5.5 10.0
823 1 1 0 6.5 6.5 -10.0
824 1 1 0 6.5 6.5 10.0
825 1 1 0 6.5 7.5 -10.0
826 1 1 0 6.5 7.5 10.0
827 1 1 0 7.5 -7.5 -10.0
828 1 1 0 7.5 -7.5 10.0
829 1 1 0 7.5 -6.5 -10.0
830 1 1 0 7.5 -6.5 10.0
831 1 1 0 7.5 -5.5 -10.0
832 1 1 0 7.5 -5.5 10.0
833 1 1 0 7.5 -4.5 -10.0
834 1 1 0 7.5 -4.5 10.0
835 1 1 0 7.5 -3.5 -10.0
836 1 1 0 7.5 -3.5 10.0
837 1 1 0 7.5 -2.5 -10.0
838 1 1 0 7.5 -2.5 10.0
839 1 1 0 7.5 -1.5 -10.0
840 1 1 0 7.5 -1.5 10.0
841 1 1 0 7.5 -0.5 -10.0
842 1 1 0 7.5 -0.5 10.0
843 1 1 0 7.5 0.5 -10.0
844 1 1 0 7.5 0.5 10.0
845 1 1 0 7.5 1.5 -10.0
846 1 1 0 7.5 1.5 10.0
847 1 1 0 7.5 2.5 -10.0
848 1 1 0 7.5 2.5 10.0
849 1 1 0 7.5 3.5 -10.0
850 1 1 0 7.5 3.5 10.0
851 1 1 0 7.5 4.5 -10.0
852 1 1 0 7.5 4.5 10.0
853 1 1 0 7.5 5.5 -10.0
854 1 1 0 7.5 5.5 10.0
855 1 1 0 7.5 6.5 -10.0
856 1 1 0 7.5 6.5 10.0
857 1 1 0 7.5 7.5 -10.0
858 1 1 0 7.5 7.5 10.0
859 2 2 -1 0.0 0.0 -10.0
860 2 2 -1 0.6656003 -0.18869877 -10.823975
861 2 2 -1 1.5506005 -0.35699844 -11.032982
862 2 2 -1 1.0881996 0.32289982 -11.609993
863 2 2 -1 0.83220005 1.2596011 -11.436996
864 2 2 -1 -0.18839955 1.4295006 -11.030006
865 2 2 -1 -0.50770044 1.8658996 -11.875992
866 2 2 -1 -1.0063004 1.4643002 -12.644997
867 2 2 -1 -1.7624998 0.7975006 -12.532997
868 2 2 -1 -2.6282 1.1172009 -13.051987
869 2 2 -1 -2.1291995 0.7793999 -13.831978
870 2 2 -1 -2.2894 -0.033700466 -14.370995
871 2 2 -1 -2.4889004 -1.1107993 -14.134979
872 2 2 -1 -2.2500002 -1.8536997 -14.750977
873 2 2 -1 -1.4640999 -2.4214005 -14.991989
874 2 2 -1 -2.4355996 -2.0003986 -15.0510025
875 2 2 -1 -2.7247 -2.7617002 -15.718002
876 2 2 -1 -2.8608 -2.162099 -16.483994
877 2 2 -1 -2.9552996 -1.6318989 -17.346992
878 2 2 -1 -3.7824 -2.1510005 -17.495003
879 2 2 -1 -3.0548 -2.0114994 -18.07499
880 2 2 -1 -2.8085995 -1.4886999 -18.942986
881 2 2 -1 -2.3500001 -1.6571999 -19.90799
882 2 2 -1 -1.8337 -0.8029008 -20.169983
883 2 2 -1 -1.8851995 -0.8800006 -21.119995
884 2 2 -1 -1.8972003 -1.2414002 -21.963997
885 2 2 -1 -2.0652997 -0.7111001 -22.805977
886 2 2 -1 -1.2434995 -1.1406994 -22.243996
887 2 2 -1 -0.6068003 -1.444099 -22.980995
888 2 2 -1 -0.6182003 -2.328 -23.400993
889 2 2 -1 -1.4279997 -1.730299 -23.11699
890 2 2 -1 -0.47709942 -2.0373988 -23.458977
891 2 2 -1 -0.5595994 -2.8910995 -23.083992
892 2 2 -1 0.014400482 -3.1315994 -23.885002
893 2 2 -1 -0.35179973 -3.9695 -24.059982
894 2 2 -1 0.36350012 -3.1865 -24.365997
895 2 2 -1 1.1550999 -3.6387992 -23.99498
896 2 2 -1 1.0301006 -2.9734993 -24.777985
897 2 2 -1 0.6544006 -2.3492002 -25.425987
898 2 2 -1 1.2200999 -1.7895007 -24.804
899 2 2 -1 1.2228 -1.3016987 -25.81398
900 2 2 -1 0.5883002 -1.1464 -26.57299
901 2 2 -1 1.2770998 -0.3309989 -26.758003
902 2 2 -1 1.2397003 0.6349015 -26.931
903 2 2 -1 0.5511999 0.33220053 -27.560997
904 2 2 -1 -0.36090016 0.68020105 -27.67498
905 2 2 -1 -0.30089974 1.3775015 -28.516998
906 2 2 -1 -0.90010047 1.8303013 -29.178009
907 2 2 -1 -0.388 1.0748005 -29.206009
908 2 2 -1 -0.8351004 1.8941998 -29.318008
909 2 2 -1 -1.0302997 1.3039994 -30.20298
910 2 2 -1 -1.3332999 2.0728993 -30.783997
911 2 2 -1 -2.0325005 2.4093008 -30.130005
912 2 2 -1 -2.0081997 2.5687003 -31.105995
913 2 2 -1 -2.4001002 1.8646002 -31.576004
914 2 2 -1 -3.0282998 1.3551998 -32.178
915 2 2 -1 -3.3932996 1.3776994 -33.20099
916 2 2 -1 -3.7479997 1.9877005 -33.95199
917 2 2 -1 -4.6009007 1.2147999 -33.76999
918 2 2 -1 -4.943 1.812501 -34.488983
919 2 2 -1 -5.2123 2.704401 -34.818993
920 2 2 -1 -4.2517996 2.4460006 -34.767
921 2 2 -1 -4.4474006 3.3231008 -35.055008
922 2 2 -1 -4.8217 3.9285004 -35.762978
923 2 2 -1 -5.3873005 4.2412004 -35.079002
924 2 2 -1 -5.2857995 4.4367003 -36.017
925 2 2 -1 -5.9487 4.9298 -36.631012
926 2 2 -1 -6.4299 5.293801 -37.403984
927 2 2 -1 -6.0064993 6.1044 -37.864
928 2 2 -1 -6.5783 6.2442007 -38.765984
929 2 2 -1 -6.8471003 7.0502005 -38.280983
930 2 2 -1 -5.9589005 6.7807007 -38.462982
931 2 2 -1 -5.0793004 7.322201 -38.10501
932 2 2 -1 -5.5534005 7.4214005 -38.933983
933 2 2 -1 -4.9649 7.9771004 -38.402977
934 2 2 -1 -4.3927 7.7725005 -39.333992
935 2 2 -1 -5.3899 7.686801 -39.343987
936 2 2 -1 -5.7965 8.5678005 -39.68399
937 2 2 -1 -5.6299996 7.9668007 -40.42099
938 2 2 -1 -6.5787992 8.2364 -40.097008
939 2 2 -1 -5.9422007 8.8967 -40.58998
940 2 2 -1 -5.505 9.1455 -41.399002
941 2 2 -1 -6.1807003 9.473801 -40.598984
942 2 2 -1 -5.771199 9.689301 -41.476974
943 2 2 -1 -5.2742004 8.9415 -42.044983
944 2 2 -1 -4.521199 8.5455 -41.441994
945 2 2 -1 -4.7162 7.5374007 -41.46
946 2 2 -1 -4.3207 7.9736004 -40.611
947 2 2 -1 -3.4405005 8.3465 -40.42198
948 2 2 -1 -3.2122004 9.241401 -40.163994
949 2 2 -1 -3.8098001 9.763601 -40.793
950 2 2 -1 -3.1969 9.270201 -41.32099
951 2 2 -1 -3.8881004 9.605301 -41.919975
952 2 2 -1 -3.5689998 10.4772005 -41.443977
953 2 2 -1 -2.8787005 10.9375 -40.863
954 2 2 -1 -2.5908005 11.8039 -41.02001
955 2 2 -1 -3.0117 12.610401 -40.49698
956 2 2 -1 -3.7475002 12.3244 -41.041985
957 2 2 -1 -3.7485003 12.6237 -42.026978
958 2 2 -1 -3.7732995 12.160601 -42.87899
Masses

1 1
2 1

Bonds

1 1 859 860
2 1 860 861
3 1 861 862
4 1 862 863
5 1 863 864
6 1 864 865
7 1 865 866
8 1 866 867
9 1 867 868
10 1 868 869
11 1 869 870
12 1 870 871
13 1 871 872
14 1 872 873
15 1 873 874
16 1 874 875
17 1 875 876
18 1 876 877
19 1 877 878
20 1 878 879
21 1 879 880
22 1 880 881
23 1 881 882
24 1 882 883
25 1 883 884
26 1 884 885
27 1 885 886
28 1 886 887
29 1 887 888
30 1 888 889
31 1 889 890
32 1 890 891
33 1 891 892
34 1 892 893
35 1 893 894
36 1 894 895
37 1 895 896
38 1 896 897
39 1 897 898
40 1 898 899
41 1 899 900
42 1 900 901
43 1 901 902
44 1 902 903
45 1 903 904
46 1 904 905
47 1 905 906
48 1 906 907
49 1 907 908
50 1 908 909
51 1 909 910
52 1 910 911
53 1 911 912
54 1 912 913
55 1 913 914
56 1 914 915
57 1 915 916
58 1 916 917
59 1 917 918
60 1 918 919
61 1 919 920
62 1 920 921
63 1 921 922
64 1 922 923
65 1 923 924
66 1 924 925
67 1 925 926
68 1 926 927
69 1 927 928
70 1 928 929
71 1 929 930
72 1 930 931
73 1 931 932
74 1 932 933
75 1 933 934
76 1 934 935
77 1 935 936
78 1 936 937
79 1 937 938
80 1 938 939
81 1 939 940
82 1 940 941
83 1 941 942
84 1 942 943
85 1 943 944
86 1 944 945
87 1 945 946
88 1 946 947
89 1 947 948
90 1 948 949
91 1 949 950
92 1 950 951
93 1 951 952
94 1 952 953
95 1 953 954
96 1 954 955
97 1 955 956
98 1 956 957
99 1 957 958

