LAMMPS (27 May 2021)
OMP_NUM_THREADS environment is not set. Defaulting to 1 thread. (src/comm.cpp:98)
  using 1 OpenMP thread(s) per MPI task
#pore simulation with negative charge

units lj
boundary p p p
atom_style full

read_data data.txt	#read_data
Reading data file ...
  orthogonal box = (-10.500000 -10.500000 -150.00000) to (10.500000 10.500000 150.00000)
  1 by 1 by 1 MPI processor grid
  reading atoms ...
  1318 atoms
  scanning bonds ...
  1 = max bonds/atom
  reading bonds ...
  99 bonds
Finding 1-2 1-3 1-4 neighbors ...
  special bond factors lj:    0        0        0       
  special bond factors coul:  0        0        0       
     2 = max # of 1-2 neighbors
     2 = max # of 1-3 neighbors
     4 = max # of 1-4 neighbors
     6 = max # of special neighbors
  special bonds CPU = 0.000 seconds
  read_data CPU = 0.007 seconds
group move type 2
100 atoms in group move
group driver id 1219		#CHANGE ID AS PER STRUCTURE THE FIRST ATOM TO ENTER PORE
1 atoms in group driver
region inside block -1.5 1.5 -1.5 1.5 -10.0 10.0
region outside1 block  -10.5 10.5 -10.5 10.5 -150.0 -10.0
region outside2 block  -10.5 10.5 -10.5 10.5 10.0 150.0

pair_style lj/cut/coul/cut 1.12		#lj/cut columb/cut
pair_coeff * * 1.0 1.0
velocity move create 1 80739

velocity driver set 0 0 0
neighbor 0.3 bin
neigh_modify every 20 delay 0 check no
bond_style harmonic
bond_coeff 1 218.6376 1

fix 1 move nve
#fix 3 move efield 0 0 -0.855 region inside
#fix 4 move efield 0 0 -0.0855 region outside1
#fix 5 move efield 0 0 -0.0855 region outside2
fix 2 move langevin 1 1 1 85748
fix 6 driver setforce 0 0 0

dump id all custom 500 output.lammpstrj id type xu yu zu		#vmd/pymol
thermo 100
timestep 0.005
run 800000
Neighbor list info ...
  update every 20 steps, delay 0 steps, check no
  max neighbors/atom: 2000, page size: 100000
  master list distance cutoff = 1.42
  ghost atom cutoff = 1.42
  binsize = 0.71, bins = 30 30 423
  1 neighbor lists, perpetual/occasional/extra = 1 0 0
  (1) pair lj/cut/coul/cut, perpetual
      attributes: half, newton on
      pair build: half/bin/newton
      stencil: half/bin/3d
      bin: standard
WARNING: Communication cutoff 1.4200000000000002 is shorter than a bond length based estimate of 1.8. This may lead to errors. (src/comm.cpp:730)
Per MPI rank memory allocation (min/avg/max) = 9.258 | 9.258 | 9.258 Mbytes
Step Temp E_pair E_mol TotEng Press 
       0  0.074668519    4368.2763            0    4368.3882    175.62122 
     100  0.061106244    4368.2756  0.058697949    4368.4259    175.61665 
     200  0.074334351     4368.275   0.06433677    4368.4508    175.61599 
     300  0.080385721     4368.272  0.066742269    4368.4593    175.61657 
     400  0.079493912     4368.263  0.065096916    4368.4473    175.61625 
     500  0.085801737    4368.2763  0.059058396     4368.464    175.61704 
     600  0.079260287    4368.2748  0.067110516    4368.4607    175.61618 
     700  0.070049081    4368.2763  0.071893882    4368.4532    175.61611 
     800  0.080847091    4368.2714  0.057094016    4368.4497    175.61749 
     900  0.072515918    4368.2763  0.066752968    4368.4518    175.61693 
    1000  0.079550677    4368.2763  0.059129066    4368.4547    175.61687 
    1100  0.082539904    4368.2741  0.059921592    4368.4578    175.61683 
    1200  0.070611829    4368.2763  0.062913875    4368.4451    175.61684 
    1300   0.06549473    4368.2721  0.055222202    4368.4255    175.61695 
    1400  0.074758591    4368.2733  0.053010815    4368.4384    175.61749 
    1500  0.074047944    4368.2709  0.062108237     4368.444    175.61655 
    1600  0.074838686    4368.2741  0.054980265    4368.4412    175.61768 
    1700  0.079978692    4368.2702   0.05001447    4368.4401    175.61891 
    1800   0.08048427    4368.2726  0.055902717    4368.4492    175.61804 
    1900  0.082562857    4368.2731  0.054728811    4368.4515    175.61767 
    2000  0.069363301     4368.271  0.050325058    4368.4253    175.61809 
    2100  0.065418112    4368.2679  0.055130419     4368.421    175.61815 
    2200  0.077861272    4368.2708  0.047217747    4368.4348    175.61837 
    2300  0.073544043    4368.2726   0.04179545    4368.4246     175.6187 
    2400  0.071578254    4368.2708  0.043979648     4368.422    175.61798 
    2500  0.064994743    4368.2748  0.043688751     4368.416    175.61787 
    2600  0.071591859    4368.2675  0.039135211    4368.4139    175.61891 
    2700  0.077508053    4368.2692   0.04836771    4368.4338     175.6191 
    2800  0.080102574    4368.2676  0.051931523    4368.4396     175.6179 
    2900  0.076209985    4368.2756  0.052734891    4368.4425     175.6187 
    3000   0.08016099    4368.2741  0.051411852    4368.4457    175.61876 
    3100  0.074566703    4368.2647  0.048430871    4368.4249    175.61814 
    3200  0.073230095    4368.2749  0.054225136    4368.4389    175.61882 
    3300  0.075023924    4368.2694  0.056969078    4368.4389    175.61801 
    3400   0.07606345    4368.2756  0.050912623    4368.4405    175.61819 
    3500  0.083262378    4368.2763  0.041569722    4368.4427    175.61888 
    3600  0.071789265     4368.269  0.037089343    4368.4137    175.61898 
    3700  0.067425277    4368.2722  0.051002234    4368.4243    175.61851 
    3800  0.078415588    4368.2734   0.05439865    4368.4454    175.61758 
    3900  0.076433302    4368.2695  0.049802139    4368.4339    175.61856 
    4000  0.075715815    4368.2736  0.051336649    4368.4384    175.61788 
    4100  0.069674669    4368.2709  0.049370512    4368.4247    175.61888 
    4200  0.082760762    4368.2742  0.040909795    4368.4392    175.61855 
    4300  0.072572961    4368.2742  0.035237126    4368.4183    175.61955 
    4400  0.070310605    4368.2722  0.047846715    4368.4255     175.6176 
    4500  0.076472414    4368.2725  0.039301047    4368.4265    175.61961 
    4600  0.078377469    4368.2695  0.047630346    4368.4346    175.61902 
    4700   0.07934637     4368.271  0.052440935    4368.4423    175.61842 
    4800  0.076968423    4368.2743  0.044321271     4368.434    175.61902 
    4900  0.077508894    4368.2714  0.047695146    4368.4353    175.61792 
    5000   0.09150284    4368.2701  0.038817247    4368.4461    175.61966 
    5100  0.084429135    4368.2706  0.046651376    4368.4438    175.61889 
    5200  0.092498946    4368.2741  0.052853608    4368.4656    175.61805 
    5300  0.080094455     4368.272   0.04774759    4368.4398    175.61996 
    5400  0.067966725    4368.2693  0.053765958    4368.4249    175.61879 
    5500  0.076391777    4368.2749  0.043337548    4368.4327    175.61937 
    5600  0.070855029     4368.272   0.04211529    4368.4203    175.61824 
    5700  0.080028825    4368.2725  0.048744455    4368.4412    175.61859 
    5800  0.076143264     4368.268  0.054799074    4368.4369    175.61803 
    5900  0.083268563    4368.2725  0.055898908    4368.4532    175.61823 
    6000   0.08573946    4368.2696  0.041107184    4368.4392     175.6192 
    6100  0.076113078    4368.2706  0.040283509     4368.425    175.61913 
    6200  0.073809617    4368.2738  0.040943304    4368.4254    175.61853 
    6300  0.066416703    4368.2735  0.048677842    4368.4218    175.61877 
    6400  0.070239573    4368.2716  0.036217777    4368.4131     175.6197 
    6500  0.063749511    4368.2712  0.033884612    4368.4006    175.61923 
    6600  0.071268184    4368.2695  0.034164494    4368.4105     175.6191 
    6700  0.068713043    4368.2728  0.035346694    4368.4111    175.61969 
    6800  0.078403888    4368.2712  0.036815301    4368.4256     175.6197 
    6900  0.079712122    4368.2719  0.049511241    4368.4409    175.61884 
    7000  0.074513403    4368.2721  0.053339463    4368.4371    175.61966 
    7100  0.078682118    4368.2678  0.038078834    4368.4238    175.61936 
    7200  0.072713144    4368.2715  0.043524724    4368.4241    175.61832 
    7300  0.084333751    4368.2686  0.041100758    4368.4361    175.61957 
    7400   0.06443604    4368.2693  0.046100546     4368.412    175.61802 
    7500  0.066236779     4368.269  0.036395949    4368.4047    175.61986 
    7600  0.073085761     4368.262  0.035282414    4368.4068    175.61919 
    7700  0.074698736    4368.2704  0.036703114    4368.4191    175.62018 
    7800  0.071424168    4368.2703  0.039566529    4368.4169    175.61955 
    7900  0.073941338    4368.2693  0.034830074    4368.4149    175.61924 
    8000   0.07059757    4368.2727   0.04362945    4368.4221    175.61942 
    8100  0.078926683    4368.2643  0.034318446    4368.4169    175.62013 
    8200  0.072515644    4368.2679   0.03184649    4368.4085    175.61929 
    8300   0.08020748    4368.2749  0.035790433    4368.4309    175.62017 
    8400   0.06870159    4368.2705  0.038484883     4368.412    175.61935 
    8500  0.077086163    4368.2727  0.039921848    4368.4282    175.61894 
    8600  0.067145587    4368.2711  0.045640265    4368.4174    175.61913 
    8700   0.08797751     4368.273  0.047557509    4368.4524    175.61936 
    8800  0.080301401    4368.2714  0.050684504    4368.4425    175.61852 
    8900  0.084151841    4368.2716  0.040462778    4368.4382     175.6191 
    9000  0.078417425    4368.2698  0.042447741    4368.4298    175.61932 
    9100  0.075041001    4368.2719  0.031099726    4368.4155    175.61999 
    9200  0.072782815    4368.2756  0.040124937    4368.4248    175.61877 
    9300  0.077522809    4368.2719  0.035482333    4368.4236    175.61966 
    9400  0.074242298    4368.2763  0.036041362    4368.4236     175.6198 
    9500  0.066510486    4368.2682  0.043579277    4368.4115    175.61979 
    9600  0.073332184    4368.2734  0.047335824    4368.4306    175.61928 
    9700  0.077576339     4368.271  0.038486164    4368.4258    175.62043 
    9800   0.06878471    4368.2708  0.038754783    4368.4127    175.61923 
    9900  0.076581241    4368.2706  0.038905378    4368.4243    175.62035 
   10000  0.088719507    4368.2728  0.041127899    4368.4469    175.62009 
   10100  0.073534663    4368.2701  0.043056272    4368.4234     175.6193 
   10200  0.063582253    4368.2685  0.051189029     4368.415    175.61902 
   10300   0.07428448    4368.2741  0.036404199    4368.4219    175.62019 
   10400  0.076961801    4368.2716  0.038268405    4368.4253    175.61918 
   10500  0.068460304    4368.2741  0.045824552    4368.4225    175.61907 
   10600  0.074477409    4368.2731  0.040907637    4368.4256    175.61904 
   10700  0.068141787     4368.272  0.042996473    4368.4171    175.61903 
   10800  0.080437086    4368.2714  0.041086428    4368.4331    175.61948 
   10900  0.079746025    4368.2674   0.04132794    4368.4283     175.6191 
   11000  0.077631699    4368.2712  0.042170695    4368.4297    175.61915 
   11100  0.073591257    4368.2734  0.054935971    4368.4386     175.6192 
   11200  0.074378526    4368.2679   0.06268162    4368.4421    175.61777 
   11300  0.094591473    4368.2741  0.034320331    4368.4502    175.61972 
   11400  0.074048711    4368.2687  0.042674886    4368.4223    175.61904 
   11500  0.069286233    4368.2677    0.0348244    4368.4064     175.6192 
   11600  0.062224041    4368.2741  0.043814612    4368.4112    175.61902 
   11700  0.067572262    4368.2732  0.036573554    4368.4111    175.61948 
   11800  0.076407873    4368.2726   0.03215743    4368.4192    175.61995 
   11900  0.067084367    4368.2719  0.043430833    4368.4159    175.61935 
   12000  0.080150745    4368.2688  0.046867374    4368.4358    175.61865 
   12100  0.077494248    4368.2687    0.0477105    4368.4325    175.62052 
   12200  0.081390073     4368.264  0.050914291     4368.437    175.61945 
   12300  0.076145238     4368.272  0.052022459    4368.4381    175.61902 
   12400  0.090148646    4368.2678  0.043226619    4368.4461    175.61932 
   12500  0.085749714    4368.2746  0.031091763    4368.4343    175.62024 
   12600  0.077209823    4368.2677  0.037867902    4368.4213    175.61959 
   12700  0.074107898    4368.2639  0.041736811    4368.4167    175.61879 
   12800  0.082863649    4368.2712  0.040750281    4368.4361    175.61849 
   12900  0.088739062     4368.266  0.050742829    4368.4498    175.61906 
   13000  0.078612924    4368.2655  0.052939339    4368.4363    175.61972 
   13100  0.070066194    4368.2649  0.047217217    4368.4172    175.61944 
   13200  0.080788496    4368.2734  0.036552907     4368.431    175.62046 
   13300  0.074723365     4368.269   0.02927546    4368.4102    175.62039 
   13400  0.071490951    4368.2707  0.033899664    4368.4118    175.61947 
   13500  0.071470924    4368.2719   0.03599181     4368.415    175.61995 
   13600  0.075958509    4368.2726  0.046026831    4368.4325    175.61905 
   13700  0.074255923    4368.2749  0.046853496     4368.433     175.6201 
   13800  0.064226603    4368.2684  0.043220313    4368.4079    175.61941 
   13900   0.08007938      4368.27  0.033122506    4368.4232     175.6203 
   14000  0.071855094    4368.2654  0.040268247    4368.4133    175.61922 
   14100  0.072559855    4368.2733  0.033897792     4368.416    175.61955 
   14200  0.079298382    4368.2729  0.041458324    4368.4332    175.61927 
   14300  0.071956015    4368.2683  0.040574989    4368.4167    175.61912 
   14400  0.067693677    4368.2653  0.036376033    4368.4031    175.61947 
   14500   0.07458908    4368.2678  0.035828823    4368.4154    175.62071 
   14600  0.074925577    4368.2614    0.0369289    4368.4106    175.61957 
   14700  0.077723564    4368.2642  0.035009936    4368.4157     175.6205 
   14800  0.070487972    4368.2675  0.035987226    4368.4091    175.62094 
   14900   0.07961256    4368.2764  0.036361218     4368.432    175.61925 
   15000   0.07162727     4368.269  0.045114287    4368.4214    175.61908 
   15100  0.073042533    4368.2678  0.034998841    4368.4123    175.62001 
   15200  0.076330034    4368.2749  0.040116526    4368.4294    175.61925 
   15300  0.075051715    4368.2691  0.035793343    4368.4174    175.62007 
   15400  0.085428233    4368.2681  0.038394125    4368.4345    175.61954 
   15500  0.069015921    4368.2718  0.057687068    4368.4329     175.6201 
   15600  0.074008578    4368.2685  0.047125855    4368.4265    175.62019 
   15700  0.078937959    4368.2739  0.043822753    4368.4361    175.61948 
   15800  0.087498623    4368.2664  0.048132909    4368.4457    175.61986 
   15900  0.084706256    4368.2687  0.037885429    4368.4336    175.61995 
   16000  0.079235879    4368.2705   0.04550182    4368.4347    175.61984 
   16100  0.070479389    4368.2706  0.041833867    4368.4181    175.61948 
   16200  0.074623223    4368.2734  0.031776529     4368.417    175.62003 
   16300  0.075047596    4368.2654  0.036001706    4368.4139    175.62017 
   16400  0.070547864    4368.2704  0.039232439    4368.4154    175.61933 
   16500  0.066387661    4368.2672  0.035015544    4368.4017    175.61883 
   16600  0.074807696     4368.271  0.040727393    4368.4238    175.61975 
   16700  0.076128739    4368.2719  0.050220604    4368.4363    175.61924 
   16800  0.075316231     4368.269  0.040103858     4368.422    175.61997 
   16900  0.072425151    4368.2667  0.033965812    4368.4092     175.6195 
   17000  0.074861515    4368.2702   0.02866197     4368.411    175.62058 
   17100  0.073200966    4368.2711  0.038772551    4368.4196    175.61998 
   17200  0.087369711    4368.2728  0.033462178    4368.4372    175.62027 
   17300  0.069894784    4368.2717   0.03387797    4368.4104    175.62044 
   17400  0.072007308    4368.2721  0.030585604    4368.4106    175.62003 
   17500  0.080354773    4368.2706  0.035696539    4368.4267    175.62001 
   17600  0.077087343    4368.2607    0.0491201    4368.4254    175.61927 
   17700  0.079711658    4368.2691  0.040734693    4368.4293    175.62086 
   17800  0.067689673    4368.2624  0.041246009    4368.4051     175.6198 
   17900  0.071662441    4368.2692  0.039395603     4368.416    175.61915 
   18000  0.073076627    4368.2711  0.048794637    4368.4294    175.61935 
   18100  0.082204327    4368.2648  0.049399754    4368.4374    175.62077 
   18200  0.083127082    4368.2698  0.039373677    4368.4338    175.61939 
   18300  0.092102365    4368.2726  0.038676302    4368.4493    175.62012 
   18400  0.077164485    4368.2714  0.040600307    4368.4277    175.61944 
   18500  0.078675932    4368.2661  0.045720284    4368.4297    175.61944 
   18600   0.07529755    4368.2663  0.047155737    4368.4263     175.6192 
   18700  0.087034876    4368.2728  0.038326023    4368.4416    175.62036 
   18800  0.093351932    4368.2625  0.040761512    4368.4432    175.61983 
   18900  0.081219145    4368.2687  0.053403562    4368.4438    175.62002 
   19000  0.087739146    4368.2652  0.044522261    4368.4413    175.62081 
   19100  0.083434513    4368.2672  0.036786602     4368.429    175.61972 
   19200  0.078392927    4368.2717  0.034573555    4368.4238    175.61956 
   19300  0.074869364    4368.2675  0.036150506    4368.4159    175.62004 
   19400  0.072262765    4368.2727  0.042351633    4368.4233    175.61973 
   19500  0.069420993    4368.2727  0.035593028    4368.4123    175.62034 
   19600  0.076093037    4368.2583  0.032283414    4368.4046    175.62067 
   19700  0.078276484    4368.2717  0.040135544    4368.4291    175.61999 
   19800  0.068328391     4368.273  0.040642017     4368.416     175.6199 
   19900  0.076878661    4368.2676  0.043244822    4368.4261    175.62001 
   20000  0.075872673    4368.2714  0.036928522    4368.4221    175.62069 
   20100  0.073500396      4368.27  0.041557536    4368.4218    175.62015 
   20200  0.065740035    4368.2756  0.044889204     4368.419    175.62007 
   20300  0.074842796    4368.2666  0.035624194    4368.4144    175.61963 
   20400  0.079814482    4368.2691  0.037215202     4368.426    175.61957 
   20500  0.084565444    4368.2673   0.04193954     4368.436    175.62005 
   20600  0.076417671     4368.269  0.047240316    4368.4307    175.61919 
   20700  0.087246272     4368.265   0.04278329    4368.4386    175.61987 
   20800  0.088710797    4368.2737  0.037523841    4368.4442    175.62022 
   20900  0.077388808    4368.2709  0.051286171    4368.4381    175.61921 
   21000  0.086613356    4368.2707  0.044360712    4368.4449    175.61918 
   21100  0.073271609     4368.266  0.045040682    4368.4209    175.62003 
   21200  0.082597672    4368.2693  0.036445136    4368.4295    175.62016 
   21300  0.073600213    4368.2714  0.043008532    4368.4248    175.61955 
   21400   0.08493791    4368.2755  0.030087122    4368.4329     175.6205 
   21500  0.080534641    4368.2692  0.041218654    4368.4312    175.62001 
   21600  0.070786051    4368.2713  0.048471478    4368.4258    175.61962 
   21700  0.078729147    4368.2602  0.042074781    4368.4203    175.62063 
   21800  0.074615847    4368.2663  0.049280133    4368.4274    175.61953 
   21900  0.079763525    4368.2578  0.045978263    4368.4234    175.62026 
   22000  0.083975771    4368.2679  0.046264136    4368.4401    175.61985 
   22100   0.08133855    4368.2657  0.047584189    4368.4352    175.62035 
   22200  0.078998912    4368.2671  0.046635374    4368.4322    175.62016 
   22300   0.07400426    4368.2653  0.045127616    4368.4213    175.61938 
   22400  0.075302057    4368.2683  0.037642166    4368.4188    175.62081 
   22500  0.071528071    4368.2665  0.043663738    4368.4173    175.62021 
   22600  0.072074008    4368.2687  0.039413499    4368.4161    175.62044 
   22700  0.070540552    4368.2683  0.042724154    4368.4167    175.62031 
   22800  0.066772972    4368.2671  0.045771488     4368.413    175.61944 
   22900  0.077594147      4368.27   0.03495249    4368.4213    175.62132 
   23000   0.06933434    4368.2721  0.045575535    4368.4216    175.61911 
   23100  0.083274031    4368.2683  0.038909683    4368.4321     175.6205 
   23200  0.082452646    4368.2666  0.031658326    4368.4219    175.61999 
   23300  0.089534531    4368.2641  0.027071065    4368.4254    175.62115 
   23400  0.078474664    4368.2739  0.030839392    4368.4223    175.62022 
   23500  0.074707506    4368.2703  0.043886099    4368.4261    175.62051 
   23600  0.071092119      4368.27  0.052547185    4368.4291    175.61894 
   23700  0.073337268    4368.2676    0.0480322    4368.4256    175.62059 
   23800  0.068908768    4368.2712  0.036361368    4368.4108    175.61979 
   23900  0.068952839    4368.2678  0.033951649    4368.4051    175.61991 
   24000  0.082325643    4368.2698  0.029097543    4368.4223    175.62069 
   24100  0.082278871    4368.2697  0.047152345    4368.4402     175.6204 
   24200  0.081314223    4368.2706  0.044731465    4368.4372    175.62028 
   24300  0.099247317    4368.2721  0.038720766    4368.4596    175.62023 
   24400  0.082829359    4368.2734  0.041750997    4368.4393    175.61968 
   24500  0.073779313    4368.2643  0.050793167    4368.4257    175.61941 
   24600  0.078376786    4368.2717  0.050978077    4368.4401    175.61927 
   24700  0.082169748     4368.264  0.044011793    4368.4312    175.61969 
   24800  0.089961339    4368.2733  0.038635345    4368.4468    175.62018 
   24900  0.075782188     4368.264  0.039373208     4368.417    175.61971 
   25000   0.08031617    4368.2694  0.037099989    4368.4269    175.62052 
   25100  0.070647016    4368.2705  0.048596953     4368.425    175.61942 
   25200  0.063077417    4368.2639  0.033811738    4368.3922    175.62072 
   25300  0.078145971    4368.2677  0.033780453    4368.4186    175.62095 
   25400  0.072893793     4368.274  0.033390827    4368.4166    175.62008 
   25500  0.071090666    4368.2692   0.02600798    4368.4017    175.62083 
   25600  0.064403108    4368.2713  0.040581237    4368.4084    175.61892 
   25700  0.080191306    4368.2698  0.036730682    4368.4267    175.62147 
   25800  0.074191093     4368.273  0.040034603    4368.4243    175.61883 
   25900  0.074932912    4368.2677  0.041661218    4368.4217    175.61988 
   26000  0.075263078    4368.2677  0.031402859    4368.4119    175.61993 
   26100  0.080046412    4368.2736  0.033162747    4368.4267    175.62021 
   26200  0.081310611    4368.2655   0.03907929    4368.4265    175.61978 
   26300  0.085014706    4368.2696  0.042142448    4368.4391    175.61997 
   26400  0.080915664    4368.2595  0.033368338    4368.4142    175.62085 
   26500  0.085530046    4368.2646  0.033822567    4368.4266    175.62016 
   26600  0.079086722    4368.2668  0.039762414    4368.4251    175.61989 
   26700  0.078632455    4368.2618  0.037617135    4368.4173    175.61909 
   26800  0.070587015    4368.2653  0.031617401    4368.4027     175.6199 
   26900   0.07024773    4368.2683  0.030649406    4368.4043    175.62098 
   27000  0.061341469    4368.2642  0.045543239    4368.4017    175.61987 
   27100  0.073042773    4368.2674   0.04638643    4368.4233    175.61965 
   27200  0.068363942    4368.2644  0.040722287    4368.4076    175.62067 
   27300  0.064963498    4368.2658  0.037049585    4368.4003    175.61981 
   27400  0.060650724    4368.2722  0.032709995    4368.3959    175.62092 
   27500  0.072437783    4368.2685  0.027909599     4368.405    175.62055 
   27600  0.074695143    4368.2585  0.034920928    4368.4054    175.62029 
   27700  0.074003578    4368.2687  0.033385309     4368.413    175.62115 
   27800  0.072737769    4368.2677  0.048376744    4368.4251    175.62012 
   27900  0.080278759    4368.2691  0.039138706    4368.4286    175.62065 
   28000  0.073071835    4368.2672  0.040275514     4368.417    175.61967 
   28100  0.079485073    4368.2613  0.031094162    4368.4115    175.62059 
   28200  0.083314907    4368.2688  0.044453103    4368.4381    175.62029 
   28300  0.075364464    4368.2711  0.048176626    4368.4323    175.61982 
   28400  0.072204429    4368.2716   0.05255852    4368.4323    175.61881 
   28500  0.079296024    4368.2691  0.040351892    4368.4283    175.61999 
   28600  0.076545016    4368.2742  0.044407074    4368.4333    175.61966 
   28700  0.066615122    4368.2754  0.049087181    4368.4243    175.62105 
   28800  0.068561906    4368.2674  0.036454799    4368.4066    175.62077 
   28900  0.073297945    4368.2705  0.036785261    4368.4171    175.61986 
   29000  0.068994757    4368.2726  0.039661717    4368.4157    175.62033 
   29100  0.071132895    4368.2709  0.051274844    4368.4288    175.61884 
   29200  0.077439498    4368.2716  0.048489001    4368.4361    175.61986 
   29300  0.066772268    4368.2718  0.050536947    4368.4224    175.61967 
   29400  0.084784387    4368.2716   0.03461727    4368.4333    175.62082 
   29500  0.070564037    4368.2644  0.043244025    4368.4134    175.62079 
   29600  0.068421484    4368.2719  0.044875733    4368.4193    175.61971 
   29700  0.062000027    4368.2707  0.038186855    4368.4018    175.62002 
   29800  0.074285666    4368.2705  0.037782623    4368.4197    175.62031 
   29900  0.078071459    4368.2664  0.034777166    4368.4182    175.62055 
   30000  0.079301039    4368.2728  0.043126294    4368.4348    175.61915 
   30100  0.076416081     4368.272  0.046360961    4368.4329    175.61996 
   30200   0.07876659    4368.2724  0.036264031    4368.4267       175.62 
   30300  0.069393078    4368.2682  0.047848116      4368.42    175.61859 
   30400  0.073301513    4368.2748  0.037004585    4368.4217    175.62003 
   30500  0.068113023    4368.2691  0.043321356    4368.4145    175.61983 
   30600  0.070490209     4368.269  0.034306577     4368.409     175.6192 
   30700  0.074020746    4368.2675  0.040204519    4368.4186    175.61992 
   30800  0.075332056    4368.2698  0.034181494    4368.4169    175.62081 
   30900  0.076247079    4368.2714  0.032996657    4368.4187    175.62111 
   31000  0.065385853    4368.2707  0.042609318    4368.4113    175.61933 
   31100  0.074140602    4368.2655  0.038198938    4368.4148    175.62024 
   31200  0.070714613    4368.2642   0.03970846    4368.4099    175.61985 
   31300  0.084629408    4368.2658  0.036196476    4368.4288    175.62044 
   31400  0.071358701    4368.2689  0.054019623    4368.4299     175.6187 
   31500  0.077830898    4368.2716  0.047398278    4368.4356    175.61945 
   31600  0.079711293     4368.263  0.041673279    4368.4241    175.61921 
   31700  0.068137609    4368.2648  0.037038097     4368.404    175.62025 
   31800  0.075970291    4368.2689  0.032077646    4368.4149    175.61981 
   31900  0.072483038    4368.2706  0.028714154     4368.408    175.61981 
   32000  0.076090516     4368.264   0.04148318    4368.4195    175.62017 
   32100  0.084153343    4368.2705  0.042589303    4368.4392    175.62024 
   32200  0.087625856    4368.2619  0.040140287    4368.4334    175.62003 
   32300  0.079083251    4368.2677   0.03723635    4368.4235    175.62169 
   32400  0.069334441    4368.2687  0.049676213    4368.4223    175.61986 
   32500  0.079027808     4368.267  0.038435112    4368.4239    175.62036 
   32600  0.069017262    4368.2713  0.036259175     4368.411    175.62015 
   32700  0.075721747    4368.2707  0.039832241     4368.424    175.62007 
   32800  0.082765064    4368.2685  0.029509221     4368.422    175.62037 
   32900  0.076268332    4368.2692  0.032934742    4368.4164    175.61984 
   33000  0.072176977    4368.2741  0.037192114    4368.4194    175.61932 
   33100  0.079072259    4368.2678  0.051023778    4368.4373    175.61962 
   33200  0.079582688    4368.2657  0.053142642    4368.4381    175.61996 
   33300  0.069677272    4368.2634  0.047482495    4368.4153    175.62026 
   33400  0.070511733    4368.2653  0.036281904    4368.4073    175.62044 
   33500   0.07333804    4368.2731  0.025282688    4368.4083    175.62079 
   33600  0.076302314    4368.2619  0.033433196    4368.4097    175.62041 
   33700  0.080352014    4368.2703  0.045489632    4368.4362    175.61997 
   33800  0.076743363    4368.2661  0.040728028    4368.4218    175.61968 
   33900  0.076531258    4368.2683  0.049635481    4368.4326    175.62107 
   34000   0.07965779     4368.272  0.042584048    4368.4339    175.61982 
   34100   0.07796344    4368.2673  0.042420927    4368.4266    175.62087 
   34200  0.072715727    4368.2702   0.04678135     4368.426    175.62054 
   34300  0.073333355    4368.2728  0.042477006    4368.4252     175.6197 
   34400  0.070734177    4368.2715  0.042488936      4368.42    175.62063 
   34500  0.072349142    4368.2697  0.039821782     4368.418    175.61988 
   34600  0.073928968    4368.2694  0.040183525    4368.4204    175.61948 
   34700  0.073641054    4368.2732  0.036738221    4368.4203    175.62038 
   34800   0.07200467    4368.2678  0.047217651     4368.423    175.61987 
   34900  0.055712671    4368.2699  0.060445843    4368.4138    175.61901 
   35000  0.079516982     4368.268  0.037179666    4368.4243    175.62019 
   35100  0.079701183    4368.2734  0.038366496    4368.4312    175.62038 
   35200  0.076518471    4368.2691    0.0439887    4368.4278     175.6193 
   35300  0.079239719    4368.2736  0.045010607    4368.4373     175.6201 
   35400  0.068724069    4368.2748  0.048595302    4368.4264    175.61996 
   35500  0.073470285    4368.2709  0.038861324    4368.4199    175.62075 
   35600  0.078890376    4368.2607  0.040084829     4368.419    175.62038 
   35700  0.071008662    4368.2671  0.033052504    4368.4065    175.62031 
   35800  0.067454796    4368.2658  0.039841765    4368.4067    175.62027 
   35900  0.075930225    4368.2624   0.04099246    4368.4172    175.62065 
   36000  0.078298048     4368.261  0.044350684    4368.4227    175.62031 
   36100  0.076069944      4368.27  0.036771479    4368.4208    175.62113 
   36200  0.076462382    4368.2685   0.03400567    4368.4171    175.62111 
   36300  0.073833057    4368.2668  0.028791314    4368.4063     175.6212 
   36400  0.059073508    4368.2687  0.034354422    4368.3916    175.61985 
   36500  0.074384901    4368.2684  0.034924878    4368.4148    175.62108 
   36600  0.074948335    4368.2653  0.044846969    4368.4224    175.62092 
   36700  0.078747517    4368.2657  0.031518024    4368.4152    175.62053 
   36800  0.070281143    4368.2713  0.040318566     4368.417    175.62095 
   36900  0.071738927    4368.2695  0.034313849    4368.4114    175.62022 
   37000  0.072802766    4368.2763  0.037248549    4368.4227     175.6197 
   37100   0.06905632    4368.2626  0.031577595    4368.3977    175.62026 
   37200  0.079263374      4368.27  0.037624563    4368.4264     175.6201 
   37300   0.06831497    4368.2691  0.039086429    4368.4106    175.61929 
   37400  0.073445908    4368.2676  0.038029827    4368.4157    175.61947 
   37500  0.077603232    4368.2662  0.045157407    4368.4277    175.61993 
   37600  0.071129017     4368.272  0.039282971    4368.4179    175.61999 
   37700  0.071839552     4368.273  0.032588346    4368.4133    175.62114 
   37800  0.073554133      4368.27  0.042719595     4368.423    175.61987 
   37900  0.073560826     4368.267   0.03933526    4368.4166    175.62064 
   38000  0.081263393    4368.2709  0.040722778    4368.4335    175.62022 
   38100  0.082463898    4368.2685  0.033763769    4368.4258    175.62003 
   38200  0.070262345    4368.2727  0.037439111    4368.4155      175.619 
   38300  0.080540157    4368.2707  0.041268841    4368.4327    175.62031 
   38400  0.084627699    4368.2729  0.034146042    4368.4339    175.61987 
   38500  0.063362137    4368.2692  0.040549004    4368.4047    175.61883 
   38600  0.065212436    4368.2713   0.03145257    4368.4005     175.6203 
   38700  0.081961571    4368.2707  0.041440084    4368.4349     175.6204 
   38800  0.077194474    4368.2709  0.041642921    4368.4282    175.62045 
   38900  0.070226441    4368.2721  0.032516769    4368.4099    175.61994 
   39000  0.086212202     4368.273  0.042855463    4368.4451    175.61947 
   39100  0.076937211    4368.2722  0.030932651    4368.4185    175.62078 
   39200  0.068175167    4368.2712  0.039349484    4368.4127    175.61922 
   39300  0.079212977    4368.2696  0.036479253    4368.4248     175.6196 
   39400  0.070417796    4368.2744  0.041300193    4368.4213    175.61975 
   39500  0.074936001    4368.2728  0.032069244    4368.4172     175.6208 
   39600  0.072702986    4368.2723   0.03570657     4368.417    175.62023 
   39700  0.065062625    4368.2721    0.0386007    4368.4082    175.61917 
   39800  0.055651319    4368.2741  0.037839935    4368.3953    175.61925 
   39900  0.069444934    4368.2728  0.041609722    4368.4185    175.62024 
   40000  0.080331452    4368.2721  0.037499604    4368.4301    175.62032 
   40100  0.079744925    4368.2729  0.034417326    4368.4269    175.62071 
   40200  0.069094756    4368.2662  0.036824506    4368.4065    175.62073 
   40300  0.072114161    4368.2741  0.042478072    4368.4247    175.62011 
   40400   0.07741685    4368.2748  0.031366443    4368.4222    175.61966 
   40500  0.080109818    4368.2692  0.036988133    4368.4263     175.6195 
   40600  0.076131995    4368.2666  0.039645069    4368.4203    175.62072 
   40700  0.072954643    4368.2681  0.047275093    4368.4247    175.62038 
   40800  0.074865789    4368.2737  0.041887519    4368.4278    175.61961 
   40900  0.070258837    4368.2724  0.041408488    4368.4192    175.61966 
   41000  0.066469478    4368.2756  0.040297643    4368.4155    175.61996 
   41100   0.07038114    4368.2726  0.048730736    4368.4268    175.62047 
   41200  0.074925912    4368.2655  0.041543858    4368.4193    175.61955 
   41300  0.073816927    4368.2669  0.046922351    4368.4245    175.61965 
   41400  0.079792989    4368.2728    0.0504468    4368.4428    175.61931 
   41500  0.078206125    4368.2675  0.037344362    4368.4221    175.62092 
   41600  0.077662922    4368.2688  0.044721217      4368.43     175.6201 
   41700  0.088128966    4368.2708  0.034826397    4368.4377    175.62022 
   41800  0.076958599    4368.2726  0.044904965    4368.4328    175.61933 
   41900  0.084065243    4368.2698  0.039169917     4368.435    175.62092 
   42000  0.073693349     4368.267  0.040311856    4368.4177    175.61974 
   42100  0.077228198    4368.2654  0.049732868    4368.4309    175.62048 
   42200  0.083860417    4368.2707  0.033777939    4368.4302     175.6205 
   42300  0.077641471    4368.2714    0.0351399    4368.4229    175.61974 
   42400  0.071350628    4368.2706   0.04811592    4368.4256     175.6194 
   42500  0.069376583     4368.273  0.041275367    4368.4183    175.62018 
   42600   0.07566823    4368.2691  0.036091494    4368.4186    175.62111 
   42700  0.082536641    4368.2721  0.029990968    4368.4258    175.62068 
   42800  0.077098588    4368.2612  0.041186795     4368.418    175.61969 
   42900  0.075007687    4368.2678  0.036280566    4368.4165    175.61975 
   43000  0.079866176    4368.2695  0.028433686    4368.4176    175.62014 
   43100  0.075218046    4368.2748  0.032162389    4368.4197    175.61985 
   43200  0.070435476    4368.2732  0.041220606      4368.42    175.62028 
   43300  0.073966939    4368.2733  0.036667612    4368.4208    175.61983 
   43400   0.07064507    4368.2714  0.029558022    4368.4069    175.62179 
   43500  0.072581041    4368.2648  0.040442836     4368.414    175.61977 
   43600  0.078544847    4368.2679  0.041004015    4368.4266    175.62128 
   43700  0.072749532    4368.2696  0.047012376    4368.4257    175.62075 
   43800  0.075669496     4368.263  0.037319675    4368.4138     175.6199 
   43900  0.068587168    4368.2714  0.039119842    4368.4134    175.62018 
   44000  0.079863599    4368.2677  0.033046261    4368.4204    175.62093 
   44100  0.077638786    4368.2696   0.03275271    4368.4188    175.61979 
   44200   0.07078139    4368.2643  0.026921714    4368.3973    175.62054 
   44300  0.076279759    4368.2708  0.036681871    4368.4218    175.62087 
   44400  0.072434332    4368.2647  0.044028845    4368.4173    175.62035 
   44500  0.073498463    4368.2707  0.036226725    4368.4171    175.61976 
   44600  0.070492525    4368.2648  0.037066218    4368.4075    175.62013 
   44700  0.065901688    4368.2667  0.027914538    4368.3934    175.62011 
   44800  0.071134812    4368.2707  0.030289611    4368.4076    175.62007 
   44900  0.077005897     4368.272  0.031431436    4368.4189     175.6203 
   45000  0.079490952    4368.2675   0.03243308    4368.4191    175.62074 
   45100  0.083272238    4368.2705  0.033537946    4368.4288    175.62013 
   45200  0.073003561    4368.2726  0.035419885    4368.4175    175.62011 
   45300  0.075367474    4368.2645  0.032456535    4368.4099    175.62102 
   45400  0.076531772    4368.2683  0.031672697    4368.4147     175.6197 
   45500  0.070023383    4368.2651  0.038279629    4368.4083       175.62 
   45600  0.063014613    4368.2718  0.048116656    4368.4144    175.62098 
   45700  0.065774259    4368.2669  0.036668871    4368.4022     175.6198 
   45800  0.067354681    4368.2708  0.032609262    4368.4043    175.62043 
   45900  0.070593068    4368.2682   0.03332345    4368.4073    175.62024 
   46000  0.073997946    4368.2712  0.041807539    4368.4239    175.62016 
   46100  0.066205032    4368.2717  0.031169074    4368.4021    175.61993 
   46200   0.07479847    4368.2711  0.037160383    4368.4204    175.62044 
   46300  0.072566678    4368.2661  0.045315987    4368.4202    175.62044 
   46400  0.065297271    4368.2697  0.040274976    4368.4078    175.62052 
   46500  0.076494837    4368.2674  0.053502069    4368.4356    175.61956 
   46600   0.07741096     4368.266  0.045576011    4368.4276    175.62018 
   46700   0.08626537    4368.2693  0.029266814    4368.4279    175.62086 
   46800  0.073295916    4368.2557   0.04463753    4368.4102    175.62039 
   46900   0.07081875     4368.267  0.045289711    4368.4185    175.62029 
   47000  0.080648053    4368.2703  0.029100454    4368.4203    175.62039 
   47100  0.072999738    4368.2622  0.041223154    4368.4129     175.6198 
   47200  0.076907252    4368.2685  0.044053749    4368.4279     175.6198 
   47300  0.082811785    4368.2655  0.033767477    4368.4234    175.61998 
   47400  0.077914747    4368.2671  0.038322035    4368.4222     175.6205 
   47500  0.075925729    4368.2683  0.047804916    4368.4299    175.62059 
   47600  0.073244536    4368.2692  0.042745914    4368.4217    175.61912 
   47700  0.081651553      4368.27  0.034446939    4368.4269    175.62111 
   47800  0.074526215    4368.2635  0.032692883    4368.4079    175.62061 
   47900  0.074715582    4368.2634  0.035505741    4368.4109    175.62007 
   48000  0.068168994    4368.2683  0.033615867    4368.4041    175.62006 
   48100  0.077710642    4368.2717  0.040289455    4368.4285    175.62043 
   48200  0.077915195    4368.2634  0.039345858    4368.4195    175.62153 
   48300  0.069730316    4368.2692  0.036288992      4368.41     175.6201 
   48400  0.071026284    4368.2668  0.032053136    4368.4054    175.61948 
   48500   0.06780012     4368.267  0.031277821    4368.3999    175.62055 
   48600  0.069622415    4368.2673   0.03495694    4368.4066    175.62039 
   48700    0.0754812    4368.2701  0.042033327    4368.4253    175.62126 
   48800  0.072882336    4368.2719  0.040267488    4368.4214    175.62058 
   48900  0.069876655    4368.2681  0.043598401    4368.4164    175.62019 
   49000  0.077798401    4368.2648  0.041690269    4368.4231    175.62038 
   49100  0.073657792    4368.2712  0.032852504    4368.4145    175.62033 
   49200   0.07190565    4368.2687  0.039394154    4368.4159    175.62101 
   49300  0.066715502    4368.2567  0.046547268    4368.4032    175.62106 
   49400  0.071536152    4368.2596  0.030838339    4368.3977    175.62029 
   49500  0.067906084    4368.2632  0.040919259    4368.4059     175.6207 
   49600   0.07387951    4368.2633  0.034157946    4368.4082    175.62059 
   49700  0.071354502    4368.2625  0.034847185    4368.4043     175.6209 
   49800  0.071514254    4368.2687  0.040734923    4368.4167      175.622 
   49900   0.07413434    4368.2615  0.037989994    4368.4106    175.62105 
   50000  0.080517005    4368.2626  0.039247628    4368.4225    175.61991 
   50100  0.070130909     4368.264  0.036015112    4368.4051    175.62072 
   50200  0.070110951    4368.2671  0.041190289    4368.4133    175.62018 
   50300  0.072981734    4368.2601  0.035977076    4368.4055    175.62076 
   50400  0.077252444    4368.2646  0.039478316    4368.4199    175.62035 
   50500  0.072648342    4368.2727  0.034233799    4368.4158    175.62041 
   50600  0.066780145    4368.2653  0.048769676    4368.4142    175.62062 
   50700  0.081043473    4368.2712  0.043727145    4368.4364    175.62023 
   50800  0.078321497    4368.2657  0.037084851    4368.4202    175.61967 
   50900  0.076230523    4368.2614  0.037921497    4368.4136    175.62108 
   51000  0.076878879    4368.2658  0.040317218    4368.4214    175.62071 
   51100  0.067207056    4368.2657  0.039907038    4368.4063    175.62091 
   51200  0.077713438    4368.2722  0.042807681    4368.4315    175.61992 
   51300  0.077116604     4368.267  0.034849057    4368.4174    175.62103 
   51400  0.081455576    4368.2672  0.043538708    4368.4328    175.62046 
   51500  0.093550935    4368.2693   0.03909357    4368.4486    175.62174 
   51600  0.072596488    4368.2706  0.047291419    4368.4267    175.61966 
   51700  0.079896495    4368.2673  0.040930473     4368.428    175.62149 
   51800  0.069616223    4368.2652  0.043048928    4368.4126     175.6203 
   51900  0.069542522    4368.2668  0.035636696    4368.4066    175.62093 
   52000  0.063207922    4368.2687  0.040027483    4368.4035     175.6198 
   52100  0.066316326    4368.2673  0.042382659    4368.4091    175.62047 
   52200  0.076772865    4368.2609  0.040023304     4368.416    175.61969 
   52300  0.078464128     4368.271  0.040950061    4368.4296    175.62006 
   52400   0.07516494     4368.268  0.040937072    4368.4216    175.62013 
   52500  0.080433487    4368.2678  0.029591461    4368.4179    175.62054 
   52600  0.079990902    4368.2679  0.042041957    4368.4298    175.61884 
   52700  0.079905523    4368.2677  0.045881946    4368.4334       175.62 
   52800  0.089747687    4368.2668  0.038720399    4368.4401    175.62065 
   52900  0.083941514    4368.2683  0.040164995    4368.4342    175.62102 
   53000  0.081676358    4368.2735  0.043595525    4368.4395    175.61994 
   53100  0.080505062      4368.27  0.040140688    4368.4308    175.62056 
   53200  0.071200027    4368.2689  0.043909473    4368.4196    175.61994 
   53300  0.081393637    4368.2711  0.035304689    4368.4284    175.61975 
   53400  0.079955742    4368.2678  0.035954076    4368.4236    175.62013 
   53500  0.075171229    4368.2565  0.048058858    4368.4172    175.61948 
   53600   0.06928336    4368.2749  0.045227631     4368.424    175.62017 
   53700  0.068483574    4368.2681  0.032526765    4368.4033    175.61976 
   53800  0.069558395    4368.2731  0.040544798    4368.4179    175.61972 
   53900  0.079114949    4368.2722  0.035684107    4368.4265    175.62026 
   54000  0.070491819    4368.2707  0.036834107    4368.4131    175.62079 
   54100  0.068252659    4368.2655  0.028933715    4368.3967    175.62061 
   54200  0.066430994    4368.2574  0.032767336    4368.3897    175.62064 
   54300  0.081261648    4368.2659  0.031420009    4368.4192    175.61971 
   54400  0.077209237    4368.2715  0.033558207    4368.4208    175.62062 
   54500  0.074429577    4368.2603  0.043962408    4368.4159    175.62045 
   54600  0.082852896    4368.2721  0.037141582    4368.4334    175.62088 
   54700  0.080036873    4368.2726  0.041196522    4368.4337    175.61953 
   54800  0.087561828    4368.2684   0.03865581    4368.4383     175.6207 
   54900  0.077122956    4368.2713  0.037163393     4368.424    175.62065 
   55000   0.07865408    4368.2634  0.036069415    4368.4174    175.62006 
   55100  0.081066277    4368.2717  0.029853569    4368.4231    175.62034 
   55200  0.080817036     4368.271    0.0328116    4368.4249    175.62104 
   55300  0.089787702    4368.2683  0.028160101     4368.431    175.62042 
   55400  0.076374782     4368.271  0.037359474    4368.4229    175.62113 
   55500  0.066996165     4368.269  0.034365719    4368.4038    175.61975 
   55600  0.072540903    4368.2665  0.034808328      4368.41     175.6198 
   55700  0.069957967      4368.27    0.0386528    4368.4135    175.61957 
   55800   0.07543259    4368.2666  0.043292108    4368.4229    175.62037 
   55900  0.076365041    4368.2696  0.037828162    4368.4219    175.62049 
   56000  0.081938521    4368.2666  0.039962528    4368.4294     175.6207 
   56100  0.072882768    4368.2669  0.033089096    4368.4092    175.62101 
   56200  0.079482428    4368.2727  0.037319963    4368.4291    175.61972 
   56300  0.079672905    4368.2663  0.042335811    4368.4281    175.62136 
   56400  0.080781273    4368.2616  0.048916422    4368.4316    175.62039 
   56500  0.081793945    4368.2672  0.037248717     4368.427    175.62143 
   56600   0.07838668    4368.2708  0.040669951    4368.4289    175.61995 
   56700   0.06887892    4368.2697  0.043045923     4368.416    175.61948 
   56800  0.066438719    4368.2708  0.032723283    4368.4031    175.62029 
   56900  0.068414102    4368.2711   0.03209613    4368.4058    175.62099 
   57000  0.073032761     4368.275  0.035445975      4368.42    175.62078 
   57100  0.073690917    4368.2724  0.037176759      4368.42    175.62036 
   57200   0.07792955    4368.2731  0.035813877    4368.4257    175.62018 
   57300   0.07319865    4368.2649  0.034883015    4368.4095    175.62058 
   57400  0.086877609    4368.2707  0.038842236    4368.4397    175.62051 
   57500  0.076709546    4368.2623  0.038928709    4368.4162    175.62066 
   57600  0.072405759    4368.2682  0.044448138    4368.4212     175.6205 
   57700  0.074420739    4368.2697  0.039761897     4368.421    175.61969 
   57800  0.076049566    4368.2638   0.04294764    4368.4207    175.62019 
   57900  0.079014356    4368.2687  0.048342419    4368.4354    175.62042 
   58000  0.080635809    4368.2644  0.040594896    4368.4258    175.61939 
   58100  0.076294096    4368.2702  0.035761252    4368.4203    175.61954 
   58200  0.061550861    4368.2698  0.036481601    4368.3985    175.62015 
   58300  0.080838581    4368.2709  0.039088149    4368.4311    175.62168 
   58400  0.084500771    4368.2738  0.036656658    4368.4371    175.61978 
   58500  0.083954519    4368.2661   0.04299772     4368.435    175.62039 
   58600  0.078923565     4368.257  0.031632356     4368.407    175.62071 
   58700  0.086144419    4368.2666  0.033728595    4368.4295    175.62077 
   58800  0.073755213    4368.2682  0.044834629    4368.4236    175.62027 
   58900  0.080999767    4368.2698  0.038491162    4368.4297    175.61911 
   59000  0.066451104    4368.2679  0.036215361    4368.4037    175.62011 
   59100  0.061777196    4368.2757  0.032090483    4368.4003    175.62017 
   59200  0.071778702    4368.2647  0.033625705    4368.4059    175.61986 
   59300   0.06318635    4368.2689  0.033654221    4368.3972    175.62013 
   59400   0.06912932    4368.2689   0.02974953    4368.4022    175.62024 
   59500  0.074238681    4368.2654  0.033539159    4368.4102    175.62103 
   59600    0.0691943     4368.272  0.026602203    4368.4024     175.6201 
   59700  0.062421917    4368.2654  0.031922782    4368.3909    175.62031 
   59800  0.067358064    4368.2665  0.036593186     4368.404    175.62035 
   59900  0.066324745    4368.2674  0.030987494    4368.3978    175.62018 
   60000   0.07126162    4368.2718  0.029270774    4368.4079    175.62058 
   60100  0.069881008    4368.2656  0.032297244    4368.4026    175.62039 
   60200  0.077021235     4368.264  0.033807255    4368.4133    175.62096 
   60300  0.084831788    4368.2635  0.031150772    4368.4218    175.62108 
   60400  0.086747695    4368.2707  0.033646404    4368.4344     175.6208 
   60500  0.083441137    4368.2699  0.042448781    4368.4374    175.62011 
   60600  0.095821682    4368.2698  0.045086328    4368.4585    175.62047 
   60700  0.079717409    4368.2659   0.05184945    4368.4373     175.6208 
   60800   0.07791596    4368.2684  0.035020578    4368.4202    175.62042 
   60900  0.083009534    4368.2665  0.036830314    4368.4277    175.62116 
   61000  0.073704753     4368.274  0.034740787    4368.4192     175.6199 
   61100    0.0822652    4368.2695  0.041482346    4368.4342    175.62122 
   61200  0.079164494    4368.2695  0.046469146    4368.4346    175.62041 
   61300  0.080956653    4368.2728  0.038152891    4368.4323     175.6209 
   61400  0.066765203     4368.268  0.039812581    4368.4078     175.6208 
   61500  0.071460274     4368.272  0.033784095    4368.4129    175.62086 
   61600  0.076002256    4368.2675   0.03442443    4368.4159    175.62113 
   61700   0.07514179    4368.2638  0.045080869    4368.4215    175.62001 
   61800  0.077779905    4368.2668  0.041343284    4368.4247    175.61942 
   61900  0.078739881    4368.2686  0.045096213    4368.4317    175.62011 
   62000  0.075474233    4368.2618  0.041830775    4368.4168    175.62188 
   62100   0.08149875    4368.2662   0.03576516    4368.4242    175.62064 
   62200   0.07450557    4368.2627  0.039321209    4368.4137    175.62017 
   62300   0.07821486    4368.2614  0.032386613    4368.4111    175.62097 
   62400  0.073679123    4368.2701  0.032820809    4368.4134    175.62165 
   62500  0.067800743     4368.268  0.035499974    4368.4051    175.62028 
   62600  0.075151333    4368.2733  0.034556796    4368.4205    175.62086 
   62700  0.075326456      4368.27  0.042035074    4368.4249    175.61919 
   62800  0.071200848    4368.2702  0.032885093    4368.4098    175.61942 
   62900  0.069521503    4368.2686  0.033663619    4368.4065    175.61974 
   63000  0.064649831     4368.272  0.030109783     4368.399    175.61963 
   63100   0.06271591    4368.2661  0.043281946    4368.4034     175.6215 
   63200  0.065191969    4368.2723  0.041491732    4368.4115    175.61982 
   63300   0.07692211    4368.2724  0.038556514    4368.4263    175.62122 
   63400  0.076779638    4368.2747  0.033617927    4368.4234    175.62056 
   63500  0.083865288    4368.2667  0.029617393     4368.422    175.61979 
   63600  0.072972587    4368.2702  0.035492041    4368.4151    175.62087 
   63700  0.080440772     4368.265  0.039818917    4368.4254    175.61924 
   63800  0.069792678    4368.2748  0.042498724    4368.4219    175.62008 
   63900  0.066998583    4368.2729  0.043172382    4368.4165    175.61953 
   64000  0.067059513    4368.2702  0.036618149    4368.4073    175.61936 
   64100  0.067858086    4368.2611  0.033919885    4368.3967    175.62081 
   64200  0.072119217    4368.2719  0.035926009    4368.4159    175.62104 
   64300  0.072487466    4368.2741   0.03037362    4368.4131    175.62095 
   64400  0.073383054    4368.2655  0.031572497     4368.407    175.62015 
   64500  0.075646365    4368.2714  0.033317989    4368.4181    175.62116 
   64600  0.067657827    4368.2634  0.039815068    4368.4046    175.62153 
   64700  0.088878553    4368.2642  0.035609412     4368.433    175.62122 
   64800  0.076592173    4368.2665  0.033940103    4368.4152    175.62144 
   64900  0.070421633    4368.2591  0.035023254    4368.3997     175.6211 
   65000  0.071153462    4368.2624  0.040384114    4368.4094    175.61989 
   65100  0.079423893    4368.2612  0.035219719    4368.4155    175.62115 
   65200  0.064418844    4368.2635  0.037145883    4368.3972    175.62084 
   65300  0.070763278    4368.2694  0.042212294    4368.4177    175.62046 
   65400   0.07520929    4368.2598  0.042265332    4368.4148    175.62024 
   65500  0.076539583    4368.2634  0.038745356    4368.4169    175.61942 
   65600    0.0766717    4368.2697  0.040014624    4368.4246    175.62185 
   65700  0.071855247    4368.2649  0.036492725    4368.4091    175.62153 
   65800  0.077089961    4368.2713  0.039111332    4368.4259    175.61901 
   65900  0.081905823     4368.272  0.025555774    4368.4204    175.62003 
   66000  0.076752341    4368.2708  0.035775763    4368.4216    175.62044 
   66100  0.082385886     4368.266  0.036043698    4368.4256    175.62049 
   66200  0.063781857    4368.2628  0.027002857    4368.3854    175.62117 
   66300  0.071572929    4368.2671  0.033906191    4368.4082    175.62023 
   66400  0.075692991    4368.2639  0.035564623    4368.4129    175.62155 
   66500  0.077610095    4368.2626  0.051361555    4368.4303    175.61948 
   66600  0.080589064    4368.2673   0.04490521     4368.433    175.62061 
   66700  0.070079805    4368.2698  0.047891047    4368.4228    175.61961 
   66800   0.08344429    4368.2682  0.039842241    4368.4331    175.62051 
   66900  0.077112179    4368.2684  0.037757716    4368.4218    175.62101 
   67000  0.076362152    4368.2739  0.037694565    4368.4261    175.62006 
   67100  0.068664451     4368.266  0.042893571    4368.4118    175.61974 
   67200  0.072143048    4368.2635  0.041230981    4368.4129    175.61989 
   67300  0.077642968    4368.2709  0.044874524    4368.4321    175.62104 
   67400  0.085524033    4368.2626  0.049198514    4368.4399     175.6206 
   67500  0.085588987    4368.2675  0.039383073    4368.4352    175.62017 
   67600  0.083388275    4368.2684  0.043709152    4368.4371    175.62046 
   67700  0.080893389     4368.272  0.036169451    4368.4294    175.62078 
   67800  0.079412116     4368.264  0.031913983    4368.4149     175.6209 
   67900  0.072818887    4368.2673  0.035354645    4368.4118    175.62223 
   68000  0.079636155    4368.2686  0.041521088    4368.4295    175.62079 
   68100  0.076402706    4368.2672   0.04016995    4368.4219    175.61984 
   68200  0.077596198    4368.2691  0.043655198    4368.4291    175.62068 
   68300  0.079923679     4368.272  0.041466328    4368.4333    175.62089 
   68400  0.084097908    4368.2665  0.046832118    4368.4394    175.62062 
   68500  0.086917933     4368.271  0.040588063    4368.4419    175.62001 
   68600  0.080497801    4368.2663  0.046625589    4368.4335    175.62075 
   68700  0.089831218    4368.2603  0.037317478    4368.4322    175.62022 
   68800  0.078156521    4368.2704  0.040199108    4368.4277    175.62037 
   68900   0.08019278    4368.2698  0.046625783    4368.4367    175.62093 
   69000  0.072916727    4368.2681  0.040732643    4368.4181     175.6197 
   69100  0.076079317    4368.2705  0.033371455    4368.4179     175.6201 
   69200   0.07633134    4368.2711  0.047807559    4368.4334    175.62094 
   69300  0.080719897    4368.2686  0.044598848    4368.4342    175.61981 
   69400  0.074615912    4368.2656  0.046983325    4368.4244    175.62178 
   69500  0.078857239     4368.272  0.044649875    4368.4348    175.62121 
   69600  0.076640857    4368.2706  0.033539162     4368.419    175.62067 
   69700  0.078919134    4368.2681  0.045862387    4368.4322    175.62036 
   69800  0.082631244    4368.2662  0.034593233    4368.4246    175.62119 
   69900  0.090239569    4368.2631  0.043368926    4368.4417    175.62182 
   70000  0.086789881    4368.2672  0.040408287    4368.4377    175.62077 
   70100  0.076621147    4368.2627  0.039095196    4368.4167    175.61967 
   70200  0.083550363    4368.2567  0.033969274    4368.4159    175.62146 
   70300  0.073896977    4368.2723  0.036041671    4368.4191    175.62067 
   70400  0.077925831    4368.2713  0.033367483    4368.4215    175.62106 
   70500  0.068089046    4368.2651  0.043037203    4368.4102    175.62043 
   70600   0.06659078    4368.2618  0.041394669     4368.403    175.62019 
   70700  0.073574224    4368.2697  0.033656344    4368.4136    175.62091 
   70800  0.070425693    4368.2699  0.042706397    4368.4181    175.62007 
   70900  0.089905001    4368.2708  0.031017511    4368.4366    175.62047 
   71000  0.080934276    4368.2656  0.033802108    4368.4207     175.6207 
   71100  0.076387689    4368.2657  0.038760499    4368.4189    175.62133 
   71200  0.074759209    4368.2716  0.040743006    4368.4244    175.62155 
   71300   0.07790889    4368.2626  0.039417465    4368.4188    175.62105 
   71400   0.07304639    4368.2661  0.047304865    4368.4229    175.61885 
   71500  0.065826626    4368.2633  0.041883393    4368.4039       175.62 
   71600  0.062853706    4368.2693  0.036940132    4368.4004    175.62017 
   71700  0.065468722    4368.2708  0.033410511    4368.4023    175.62041 
   71800  0.069542161    4368.2647  0.035273832    4368.4042    175.62123 
   71900  0.061466622    4368.2667  0.043490412    4368.4024    175.62101 
   72000  0.071706507     4368.267  0.031685276    4368.4062    175.62131 
   72100  0.074589367    4368.2695  0.038614788    4368.4199    175.62033 
   72200  0.070225707    4368.2668  0.046866827    4368.4189    175.61964 
   72300  0.076626995    4368.2646  0.043273981    4368.4227    175.62044 
   72400   0.07938054    4368.2707  0.038557367    4368.4283    175.61987 
   72500  0.076713769    4368.2697  0.033424949    4368.4181    175.62022 
   72600  0.080700982    4368.2721  0.037603864    4368.4306    175.61993 
   72700  0.075466059    4368.2672  0.045319577    4368.4256    175.62077 
   72800  0.082303658    4368.2707  0.043977685     4368.438    175.61996 
   72900  0.078924113    4368.2629  0.055091662    4368.4363    175.61966 
   73000  0.077471529     4368.269  0.044102543    4368.4292    175.62057 
   73100  0.077037575    4368.2641  0.045003546    4368.4245    175.62076 
   73200  0.080932953    4368.2729  0.033484002    4368.4277    175.62039 
   73300  0.079383042    4368.2696   0.04380948    4368.4324    175.62041 
   73400  0.077566837    4368.2654  0.037594717    4368.4193    175.62031 
   73500  0.072747152    4368.2677  0.047432802    4368.4241    175.62015 
   73600  0.075882263    4368.2621  0.038272046    4368.4141    175.62035 
   73700  0.075026486    4368.2697  0.042462437    4368.4246    175.62056 
   73800  0.072429415    4368.2654  0.036147124    4368.4101    175.62093 
   73900   0.06575318    4368.2684  0.034533003    4368.4015    175.61989 
   74000  0.067210549    4368.2628  0.034474247    4368.3981    175.62072 
   74100  0.064692344    4368.2734  0.037613588     4368.408    175.62059 
   74200  0.073852307    4368.2704  0.034638992    4368.4157    175.62052 
   74300  0.074161203    4368.2707  0.030320627    4368.4122    175.62122 
   74400  0.065460541    4368.2694  0.029166804    4368.3967    175.62128 
   74500   0.06973863    4368.2684  0.026608062    4368.3995    175.62062 
   74600  0.070016134    4368.2666  0.036597675    4368.4081    175.61968 
   74700  0.084404543    4368.2694  0.033807538    4368.4297    175.62029 
   74800  0.077170682    4368.2674  0.041799846    4368.4249    175.62048 
   74900  0.075991676      4368.27  0.039380103    4368.4233    175.62064 
   75000  0.070294592    4368.2709  0.050000255    4368.4262     175.6186 
   75100  0.074620495    4368.2702  0.041953174     4368.424    175.62057 
   75200  0.080229125    4368.2653  0.043009154    4368.4286    175.62094 
   75300  0.074704255    4368.2694  0.036711223     4368.418    175.61995 
   75400  0.077671928    4368.2741  0.040972673    4368.4315    175.61982 
   75500  0.077770258    4368.2744  0.037315646    4368.4283    175.62001 
   75600  0.073563618    4368.2659   0.05129787    4368.4274    175.61917 
   75700  0.081333109    4368.2694  0.030722932     4368.422    175.62063 
   75800  0.086580442    4368.2699  0.034066367    4368.4337    175.62017 
   75900  0.070722148    4368.2719  0.052014017      4368.43    175.61895 
   76000  0.072818433     4368.274  0.047206398    4368.4304    175.62075 
   76100  0.074258402    4368.2694  0.038052066    4368.4187    175.62141 
   76200  0.073117548    4368.2638   0.03501296    4368.4084    175.62057 
   76300  0.080714166    4368.2698  0.031053789    4368.4219    175.62026 
   76400  0.073852932    4368.2657  0.029145761    4368.4055    175.62072 
   76500  0.073965346    4368.2627    0.0345736    4368.4082    175.62047 
   76600  0.075318392    4368.2662  0.031598927    4368.4107    175.62069 
   76700   0.06858817    4368.2669   0.03196544    4368.4017    175.62071 
   76800  0.071067279    4368.2646  0.034267722    4368.4054    175.62105 
   76900   0.07306429    4368.2613  0.037193645     4368.408     175.6207 
   77000  0.083307985    4368.2701  0.031320348    4368.4263    175.62138 
   77100  0.079162553     4368.269  0.030126792    4368.4178    175.62018 
   77200  0.069356127    4368.2623  0.035576222    4368.4018     175.6201 
   77300  0.080756254    4368.2696  0.028819101    4368.4195    175.62094 
   77400  0.070165194    4368.2648  0.032336341    4368.4023    175.62037 
   77500  0.074859061    4368.2702  0.042773938    4368.4251     175.6201 
   77600  0.066803597    4368.2629   0.04120295    4368.4042    175.61963 
   77700  0.071693323    4368.2718  0.036188364    4368.4154     175.6214 
   77800  0.069549799    4368.2695  0.031363419    4368.4051    175.62116 
   77900  0.066388196     4368.264  0.046570319    4368.4101    175.62276 
   78000  0.086511626    4368.2664  0.034645962    4368.4307    175.62121 
   78100   0.07691597    4368.2689  0.035617043    4368.4198    175.62057 
   78200  0.078568511    4368.2656   0.03794849    4368.4213    175.62016 
   78300  0.072674386    4368.2671  0.037716999    4368.4138    175.62036 
   78400  0.072233272     4368.268  0.031428869    4368.4077    175.62004 
   78500  0.070407027      4368.27  0.043580211    4368.4191    175.61976 
   78600  0.059557473     4368.268   0.03738957    4368.3946       175.62 
   78700  0.067385038    4368.2613  0.035260673    4368.3976    175.62077 
   78800   0.08169775    4368.2651  0.036096532    4368.4237    175.62149 
   78900  0.080591816    4368.2657  0.042547665     4368.429     175.6205 
   79000  0.084583341    4368.2724  0.037991139    4368.4372    175.62001 
   79100  0.079020591    4368.2671  0.037528436    4368.4231    175.62078 
   79200  0.072686147    4368.2589  0.036690862    4368.4046    175.62069 
   79300  0.066930985    4368.2688   0.03022024    4368.3993    175.62032 
   79400  0.069896271    4368.2653  0.034896246     4368.405    175.62129 
   79500  0.066771417    4368.2568  0.039997522    4368.3968    175.62103 
   79600  0.074329719    4368.2669  0.031991204    4368.4103    175.62118 
   79700  0.076533516    4368.2616   0.03231448    4368.4086    175.62145 
   79800  0.079736672    4368.2673  0.039166344     4368.426    175.62064 
   79900  0.063526027    4368.2667  0.044774575    4368.4067    175.61985 
   80000  0.070254443    4368.2634  0.044078858    4368.4128    175.62114 
   80100  0.073699213    4368.2648   0.03558849    4368.4109    175.62112 
   80200  0.078716896    4368.2609  0.040401473    4368.4193    175.62061 
   80300  0.078835859    4368.2673  0.027335475    4368.4128    175.62091 
   80400  0.072221218     4368.273  0.031260828    4368.4125    175.61998 
   80500  0.069193845    4368.2708  0.031163687    4368.4057    175.62068 
   80600  0.063688812      4368.27  0.033697677    4368.3992    175.62065 
   80700  0.068969523    4368.2708  0.032192968    4368.4063    175.62037 
   80800  0.076337582    4368.2672  0.044255108    4368.4259    175.62064 
   80900  0.071137297    4368.2656  0.049590662    4368.4218    175.61946 
   81000  0.079720111    4368.2615  0.031429283    4368.4125    175.62057 
   81100  0.082439883    4368.2697  0.041969511    4368.4352    175.62022 
   81200  0.091590067    4368.2708   0.03973577    4368.4478    175.62149 
   81300  0.076137741    4368.2673  0.034703761    4368.4161    175.61978 
   81400  0.076236628    4368.2694  0.039960257    4368.4237    175.61969 
   81500  0.074936146    4368.2677  0.034080844    4368.4141    175.62034 
   81600  0.072755478    4368.2641  0.042622568    4368.4158    175.62038 
   81700  0.077441379    4368.2711  0.028849136     4368.416    175.62052 
   81800  0.060167521    4368.2687  0.034835159    4368.3937    175.62081 
   81900  0.073884239     4368.267  0.034981404    4368.4127    175.62081 
   82000  0.072262592    4368.2702  0.045248685    4368.4237    175.62029 
   82100  0.076287411    4368.2666  0.034920768    4368.4158    175.62053 
   82200  0.075408569    4368.2707  0.035748065    4368.4194    175.62095 
   82300  0.063417512    4368.2659  0.038707826    4368.3996    175.62015 
   82400  0.073991175    4368.2664  0.031847325    4368.4091    175.61966 
   82500  0.071470365    4368.2693  0.034209762    4368.4106     175.6205 
   82600  0.078717478    4368.2671  0.037578416    4368.4227    175.62027 
   82700  0.077064711    4368.2668  0.031259793    4368.4136    175.62054 
   82800  0.065896972    4368.2676  0.032841752    4368.3992    175.61965 
   82900  0.071149568    4368.2691  0.030410019    4368.4061    175.62033 
   83000  0.063638189    4368.2692  0.036913177    4368.4015    175.61994 
   83100  0.082209304    4368.2663  0.039027808    4368.4285    175.62064 
   83200  0.066437091    4368.2645  0.040160286    4368.4042    175.62013 
   83300  0.080862315    4368.2663  0.048436672     4368.436    175.62018 
   83400  0.073433575    4368.2699   0.03894875    4368.4189    175.62022 
   83500  0.085409466    4368.2683   0.03693038    4368.4333    175.62078 
   83600  0.077525796    4368.2653  0.040529557     4368.422    175.62096 
   83700  0.080535903    4368.2686  0.050121709    4368.4395    175.62095 
   83800  0.082767927    4368.2651   0.03220247    4368.4214    175.62049 
   83900  0.070779074    4368.2675   0.04685064    4368.4204    175.62081 
   84000  0.069272344    4368.2667   0.03028792    4368.4008    175.62046 
   84100  0.066895746    4368.2674  0.040064181    4368.4077    175.62021 
   84200  0.072459792    4368.2705  0.043899469     4368.423    175.62016 
   84300  0.079093565    4368.2727  0.035350609    4368.4266    175.62028 
   84400  0.084227562     4368.267  0.037244064    4368.4304    175.62046 
   84500  0.074656294    4368.2714  0.036490979    4368.4198    175.62071 
   84600   0.07625862    4368.2676  0.034155221    4368.4161    175.62109 
   84700  0.080178957    4368.2716  0.043182526     4368.435    175.62033 
   84800  0.072185399    4368.2704  0.043886347    4368.4225    175.62048 
   84900  0.084071038    4368.2724  0.033917872    4368.4323    175.62145 
   85000  0.072384986    4368.2669  0.051993029    4368.4274    175.62011 
   85100  0.075017992    4368.2677  0.040525015    4368.4207    175.61981 
   85200   0.08206467    4368.2638  0.037508554    4368.4243    175.62098 
   85300  0.081246225    4368.2647  0.042640351    4368.4291     175.6204 
   85400  0.080133339    4368.2663  0.043176064    4368.4296    175.61974 
   85500  0.079659532    4368.2752   0.03765939    4368.4323    175.62047 
   85600   0.07687871    4368.2719  0.039234586    4368.4264    175.62084 
   85700  0.074612484    4368.2662  0.032162846    4368.4102    175.62048 
   85800  0.085033941    4368.2653  0.035614343    4368.4284    175.62014 
   85900  0.072563319    4368.2723  0.039709759    4368.4208    175.62044 
   86000  0.078250008    4368.2656  0.038276642    4368.4211    175.62091 
   86100  0.074745681    4368.2677  0.051803731    4368.4315    175.62029 
   86200  0.077543169    4368.2704  0.039506873    4368.4261    175.61977 
   86300  0.075344344     4368.267  0.046753248    4368.4267    175.62014 
   86400  0.084293122    4368.2732  0.033692875    4368.4332     175.6209 
   86500  0.078231607    4368.2717  0.036023915    4368.4249    175.61943 
   86600  0.073958779     4368.265  0.035923891    4368.4118    175.62021 
   86700   0.07990739      4368.27  0.028967712    4368.4188    175.62051 
   86800  0.077231364      4368.27  0.038376586    4368.4241    175.62027 
   86900  0.066431834    4368.2627  0.049828736    4368.4121    175.62005 
   87000  0.076602451    4368.2662  0.044770786    4368.4258     175.6205 
   87100  0.083515749    4368.2704  0.044231984    4368.4398    175.62061 
   87200  0.072036805    4368.2598  0.045480612    4368.4132    175.62066 
   87300  0.088311499    4368.2633  0.034944878    4368.4306    175.62069 
   87400  0.090977722    4368.2706  0.031528948    4368.4385    175.62092 
   87500  0.067951457    4368.2699  0.039428428    4368.4112    175.62108 
   87600  0.071869677    4368.2687  0.033407233    4368.4099    175.62043 
   87700  0.059579613    4368.2633  0.034804393    4368.3875    175.62048 
   87800   0.07317882    4368.2686   0.03756826    4368.4159    175.62105 
   87900  0.084577972    4368.2687  0.033670739    4368.4291    175.62114 
   88000  0.083313042    4368.2639  0.031136417    4368.4199    175.62036 
   88100  0.075451948    4368.2684  0.032644732    4368.4142    175.62139 
   88200  0.076389223    4368.2675  0.041603178    4368.4236     175.6201 
   88300  0.070814839    4368.2657   0.03827954    4368.4101    175.62039 
   88400  0.072572433    4368.2617  0.031687824    4368.4022    175.62126 
   88500  0.064154082    4368.2637  0.032957014    4368.3928    175.62091 
   88600    0.0604686    4368.2646  0.038623525    4368.3939    175.62015 
   88700  0.075647517    4368.2694  0.028196183     4368.411    175.62072 
   88800   0.07533181    4368.2679  0.033135401     4368.414    175.62064 
   88900  0.074301236    4368.2675  0.038212518    4368.4171    175.62037 
   89000  0.086280114    4368.2626  0.043229667    4368.4352    175.62055 
   89100  0.083296716    4368.2718  0.049591426    4368.4463    175.61923 
   89200  0.077842475      4368.27   0.04241534    4368.4291    175.62055 
   89300  0.085128577    4368.2624  0.036993017     4368.427    175.62158 
   89400  0.078637024    4368.2643  0.033890027     4368.416    175.62071 
   89500  0.073286122    4368.2596  0.033210809    4368.4026    175.62186 
   89600  0.071864083    4368.2693  0.042165859    4368.4191    175.62016 
   89700  0.076572278    4368.2638  0.033177973    4368.4117    175.62043 
   89800  0.078776245     4368.263  0.032492218    4368.4136    175.62091 
   89900  0.079127591    4368.2655  0.034485378    4368.4186    175.62086 
   90000  0.065148857    4368.2652  0.034940489    4368.3978    175.62082 
   90100  0.071147645    4368.2661  0.032020122    4368.4048    175.62016 
   90200  0.077650985    4368.2665  0.043753086    4368.4267    175.62046 
   90300  0.081073896    4368.2684  0.045800196    4368.4357    175.62044 
   90400  0.070691953    4368.2699  0.041050339    4368.4169    175.61945 
   90500  0.073340844     4368.259  0.051198348    4368.4201    175.62074 
   90600  0.080779224    4368.2615  0.044118313    4368.4267    175.62118 
   90700  0.073963014    4368.2633  0.057804213    4368.4319    175.62045 
   90800  0.081649925    4368.2665   0.05246905    4368.4414    175.61954 
   90900  0.086334301    4368.2687  0.039049984    4368.4372    175.62037 
   91000  0.082528685     4368.265   0.03808408    4368.4268    175.62117 
   91100  0.071807097    4368.2634  0.037019661     4368.408    175.62137 
   91200  0.067984154    4368.2698  0.037172106    4368.4088    175.62113 
   91300  0.072971035     4368.261  0.044855578    4368.4152    175.62041 
   91400  0.078056989    4368.2619  0.039256661    4368.4182    175.62083 
   91500  0.067194732    4368.2668  0.043729357    4368.4113    175.62025 
   91600  0.079520743    4368.2629  0.037851018    4368.4199    175.62129 
   91700  0.082466926    4368.2608  0.036815569    4368.4212    175.62018 
   91800  0.075042131    4368.2635  0.041976697     4368.418    175.62023 
   91900  0.074065855    4368.2629  0.038579191    4368.4125    175.61984 
   92000  0.066307133    4368.2554  0.030597697    4368.3854    175.62132 
   92100  0.067218294    4368.2638  0.031835504    4368.3964    175.62077 
   92200  0.071108567    4368.2676  0.043303068    4368.4175    175.62105 
   92300  0.078595413    4368.2674  0.031155033    4368.4164    175.62131 
   92400  0.072089906    4368.2624  0.033070426    4368.4035    175.62085 
   92500  0.070129267      4368.27  0.037932453    4368.4131    175.62008 
   92600  0.075563651    4368.2679  0.038366263    4368.4196    175.62019 
   92700  0.083861236    4368.2672   0.02945693    4368.4223    175.62155 
   92800  0.081684599    4368.2656  0.028492746    4368.4165    175.62081 
   92900  0.089042021    4368.2714   0.03141722    4368.4362    175.62128 
   93000  0.087496077    4368.2616  0.027704204    4368.4205    175.62103 
   93100  0.080187864    4368.2667  0.033362599    4368.4203    175.62032 
   93200  0.076782461    4368.2652  0.032450283    4368.4127    175.62072 
   93300  0.083872134     4368.272  0.033857977    4368.4316    175.61981 
   93400  0.081498311    4368.2612  0.042475885    4368.4258    175.62066 
   93500  0.078131412    4368.2682  0.035926933    4368.4212    175.62039 
   93600  0.077436575    4368.2643  0.034570373    4368.4149    175.62036 
   93700  0.088395832    4368.2655  0.041847672    4368.4399    175.62151 
   93800  0.084540006     4368.262  0.045068011    4368.4338    175.62021 
   93900  0.084846641    4368.2715   0.03605782    4368.4348    175.62111 
   94000  0.077816636    4368.2593  0.036618981    4368.4125    175.62015 
   94100  0.065384658    4368.2677  0.039936315    4368.4056    175.62055 
   94200  0.068249354    4368.2654  0.030181689    4368.3979    175.62136 
   94300  0.058242115    4368.2627  0.035128383    4368.3851    175.61968 
   94400   0.07293917    4368.2647  0.029718992    4368.4037    175.62128 
   94500  0.067081654    4368.2641  0.033900321    4368.3986    175.62118 
   94600  0.063330339    4368.2671  0.040257178    4368.4023    175.62075 
   94700  0.067136294    4368.2652  0.040659745    4368.4065     175.6215 
   94800  0.080684212    4368.2615  0.035209917    4368.4176    175.62022 
   94900  0.072068656    4368.2709  0.039831056    4368.4187     175.6216 
   95000  0.074702043    4368.2664  0.034972615    4368.4133    175.62024 
   95100  0.066872981    4368.2662  0.041805032    4368.4082     175.6202 
   95200  0.081611123     4368.262  0.039197444    4368.4235    175.62188 
   95300  0.076032728    4368.2691  0.039007689    4368.4221    175.62078 
   95400  0.076260748    4368.2675  0.042343491    4368.4241    175.62175 
   95500  0.079563965    4368.2705   0.03778985    4368.4275    175.62077 
   95600  0.075010493    4368.2687  0.041054736    4368.4222    175.61993 
   95700  0.085279288    4368.2678  0.043662088    4368.4393    175.62056 
   95800  0.081165711    4368.2645  0.042020745    4368.4282    175.62061 
   95900  0.076599476     4368.268  0.053376913    4368.4362    175.61961 
   96000  0.086871525    4368.2626  0.044952754    4368.4378    175.62041 
   96100  0.075581097    4368.2631  0.035910165    4368.4123    175.62009 
   96200  0.079631676    4368.2645  0.041160265     4368.425    175.62092 
   96300  0.084135235    4368.2625  0.035901317    4368.4245    175.62041 
   96400  0.075718394    4368.2627  0.038805257     4368.415    175.61984 
   96500  0.077500481     4368.267  0.035243135    4368.4184     175.6214 
   96600  0.076459397    4368.2647  0.050276264    4368.4296    175.62024 
   96700   0.07601892    4368.2676  0.036804284    4368.4183    175.62209 
   96800  0.072981065    4368.2623  0.041403446    4368.4131    175.62017 
   96900  0.071128139    4368.2736  0.034810669     4368.415    175.62017 
   97000  0.061943775    4368.2657  0.039210978    4368.3977     175.6201 
   97100  0.063820177    4368.2625  0.047328864    4368.4055    175.61994 
   97200  0.076923078    4368.2696  0.031512929    4368.4164    175.62066 
   97300  0.071546206    4368.2721  0.037801918    4368.4172    175.62049 
   97400  0.070172974    4368.2689  0.034373347    4368.4085     175.6207 
   97500  0.070548538    4368.2655  0.044761427     4368.416    175.62073 
   97600  0.076040061    4368.2632  0.037728463    4368.4149    175.62026 
   97700  0.079885246    4368.2616  0.038095779    4368.4194    175.62014 
   97800  0.085471891    4368.2637  0.037479131    4368.4293    175.62146 
   97900  0.079910697    4368.2669  0.036792472    4368.4235    175.62094 
   98000  0.071542394    4368.2675  0.035513011    4368.4102    175.62058 
   98100  0.068725263    4368.2668  0.033717536    4368.4035    175.62079 
   98200  0.069589228    4368.2692  0.041862212    4368.4153    175.62044 
   98300   0.07660454    4368.2686  0.038507073     4368.422    175.61955 
   98400  0.076872274    4368.2686  0.038834035    4368.4227    175.61924 
   98500  0.075374475    4368.2652  0.042409204    4368.4206    175.62077 
   98600  0.073476027    4368.2569   0.03545361    4368.4024    175.62127 
   98700  0.078394894    4368.2679  0.031046007    4368.4165    175.62124 
   98800  0.083534927    4368.2638  0.023291822    4368.4123    175.62106 
   98900   0.07544614    4368.2643  0.029722019    4368.4071    175.62107 
   99000  0.066762114    4368.2564   0.02738368    4368.3839    175.62097 
   99100  0.068883871    4368.2637  0.035563852    4368.4025    175.62019 
   99200   0.08528419    4368.2679  0.033138892    4368.4289    175.62084 
   99300  0.082944282    4368.2686  0.036627533    4368.4295    175.62028 
   99400   0.08015681    4368.2687  0.042237802    4368.4311    175.62032 
   99500  0.076416386     4368.264  0.042234368    4368.4208    175.61989 
   99600  0.080983946    4368.2643  0.041485084    4368.4272    175.61944 
   99700   0.07110311    4368.2728  0.048194857    4368.4276     175.6204 
   99800  0.071422115    4368.2598  0.035754638    4368.4026    175.62053 
   99900   0.06983862    4368.2655  0.037738391    4368.4079    175.62129 
  100000  0.064829291    4368.2558  0.034972562    4368.3879    175.62063 
  100100  0.066187293    4368.2669  0.036860421     4368.403    175.62089 
  100200  0.061626544    4368.2597  0.038263606    4368.3904    175.62043 
  100300  0.066667303    4368.2697  0.036648784    4368.4063    175.62029 
  100400   0.06926525    4368.2695  0.033442682    4368.4068    175.62061 
  100500  0.074466955    4368.2708  0.043236755    4368.4257    175.62068 
  100600   0.07779353    4368.2723  0.038986814    4368.4279    175.62062 
  100700  0.093538893    4368.2654  0.031073659    4368.4367    175.62093 
  100800  0.078205332    4368.2649   0.04301636    4368.4251    175.62014 
  100900  0.087701975     4368.265  0.039009024    4368.4355     175.6206 
  101000  0.086501626    4368.2604  0.035812325    4368.4259    175.62062 
  101100  0.083237128    4368.2687  0.031684567    4368.4251    175.62091 
  101200  0.071558457    4368.2662  0.047119432    4368.4206    175.61988 
  101300  0.073912001    4368.2718  0.041970863    4368.4246    175.62049 
  101400  0.082210943    4368.2674  0.043421474     4368.434    175.62036 
  101500  0.069092447    4368.2661     0.044109    4368.4138    175.62071 
  101600  0.081755876     4368.269  0.030169923    4368.4217    175.62087 
  101700  0.077633118    4368.2663  0.027026919    4368.4097    175.62039 
  101800  0.075335117    4368.2708  0.033997735    4368.4177    175.62085 
  101900  0.069334865    4368.2644  0.039924701    4368.4083    175.62043 
  102000  0.073683303    4368.2627  0.044174376    4368.4173     175.6212 
  102100  0.079509825    4368.2697  0.046263294    4368.4351    175.62064 
  102200  0.073766805    4368.2674  0.040350584    4368.4183     175.6205 
  102300  0.071027559    4368.2678  0.036385561    4368.4107    175.62017 
  102400  0.073342054    4368.2672  0.035356841    4368.4125    175.61981 
  102500   0.07965348    4368.2624   0.03133067    4368.4132    175.62024 
  102600   0.07342296    4368.2641  0.038479404    4368.4127    175.62043 
  102700  0.084863622    4368.2657  0.037883984    4368.4308    175.62067 
  102800  0.076137398    4368.2649  0.032798938    4368.4118    175.62046 
  102900  0.069152826    4368.2663  0.032514626    4368.4025    175.62045 
  103000  0.069628124    4368.2645  0.039249464    4368.4082    175.62108 
  103100  0.078580584    4368.2689  0.033562704    4368.4202    175.62053 
  103200  0.063978601    4368.2721  0.032599979    4368.4005    175.62077 
  103300  0.065939662    4368.2653  0.033328945    4368.3975    175.62119 
[...]
  775100  0.080367865    4368.2612  0.034848293    4368.4165    175.62082 
  775200  0.082525257    4368.2704  0.041690466    4368.4358    175.62117 
  775300  0.089949272    4368.2676  0.043964131    4368.4464    175.62072 
  775400  0.075171671    4368.2722  0.046933359    4368.4318    175.62153 
  775500  0.087354378    4368.2699    0.0455661    4368.4464    175.62011 
  775600  0.079914531    4368.2747  0.039645463    4368.4341    175.62159 
  775700  0.079297197    4368.2658   0.03438142     4368.419     175.6211 
  775800  0.085284212    4368.2615   0.03399569    4368.4234     175.6213 
  775900   0.08138193    4368.2665  0.033583036     4368.422    175.62067 
  776000  0.079339848    4368.2702  0.039229021    4368.4283    175.62093 
  776100  0.081113075    4368.2629  0.038722892    4368.4232    175.62081 
  776200  0.075067554    4368.2684  0.040269548    4368.4212    175.61953 
  776300  0.068562357    4368.2705  0.044905567    4368.4181    175.62095 
  776400  0.068633564    4368.2692  0.035382809    4368.4075    175.62133 
  776500  0.071332739    4368.2736  0.033046571    4368.4136    175.62066 
  776600  0.076148815    4368.2648  0.037162141    4368.4161    175.62009 
  776700  0.076362923    4368.2726  0.041342614    4368.4284    175.61991 
  776800  0.072498719    4368.2626  0.037930805    4368.4092    175.61996 
  776900  0.068671809    4368.2641  0.037231409    4368.4042    175.62057 
  777000  0.063847668    4368.2644  0.036322342    4368.3964    175.62017 
  777100  0.071007751    4368.2628  0.032643836    4368.4019    175.62167 
  777200  0.067398325    4368.2696  0.035028814    4368.4056    175.62022 
  777300  0.060362264    4368.2731  0.041133209    4368.4047    175.61962 
  777400  0.068266398    4368.2607  0.032442151    4368.3954    175.62108 
  777500  0.073457369    4368.2684  0.026385917    4368.4049    175.62097 
  777600  0.069726527    4368.2678  0.028071089    4368.4003    175.62085 
  777700   0.07133122    4368.2709  0.031881037    4368.4097    175.62071 
  777800  0.063301608     4368.271  0.033601639    4368.3995    175.62016 
  777900  0.060811789    4368.2685  0.033357306     4368.393     175.6203 
  778000  0.069528844    4368.2658  0.032491735    4368.4025    175.62134 
  778100  0.074962144    4368.2677  0.037367347    4368.4175     175.6196 
  778200  0.075106125    4368.2683  0.049486062    4368.4303    175.61946 
  778300  0.082321277    4368.2724  0.035215624     4368.431    175.62089 
  778400  0.081920442    4368.2631  0.030612623    4368.4165    175.62049 
  778500   0.07580874    4368.2719  0.036693371    4368.4222    175.62066 
  778600  0.069133884    4368.2649  0.037870978    4368.4064    175.62004 
  778700  0.066613608    4368.2668  0.035550985    4368.4022    175.62079 
  778800  0.074029689    4368.2712  0.035905153    4368.4181    175.62016 
  778900  0.074116496    4368.2744  0.038776062    4368.4243    175.62043 
  779000  0.083589676    4368.2674  0.036275324     4368.429    175.62069 
  779100   0.08267591    4368.2651  0.042108288    4368.4311    175.62109 
  779200  0.070042413    4368.2686  0.034446735    4368.4081    175.62088 
  779300  0.068141473    4368.2644  0.033861973    4368.4004    175.62051 
  779400  0.061970613    4368.2647  0.034935039    4368.3926     175.6202 
  779500  0.076897455    4368.2662  0.035017589    4368.4165    175.62048 
  779600  0.079626835    4368.2712  0.029988965    4368.4205    175.62083 
  779700   0.07124709     4368.269  0.045560955    4368.4214    175.62106 
  779800  0.079114914    4368.2701  0.044186519    4368.4328    175.62044 
  779900  0.082609646    4368.2718  0.054419102      4368.45    175.62068 
  780000  0.083095527    4368.2708  0.043908926    4368.4393    175.62134 
  780100  0.073471911    4368.2666  0.037948852    4368.4146    175.62101 
  780200  0.071725593     4368.268  0.038742817    4368.4143    175.62069 
  780300  0.071539005    4368.2697  0.034300481    4368.4112    175.62024 
  780400   0.06580083    4368.2618  0.033388566    4368.3938    175.62133 
  780500  0.067793389     4368.268  0.033122284    4368.4027    175.62042 
  780600    0.0755924    4368.2622  0.035024667    4368.4105    175.62039 
  780700   0.07664943    4368.2669   0.04393096    4368.4257    175.61994 
  780800  0.073827988     4368.273  0.038561684    4368.4222    175.62152 
  780900  0.073450332    4368.2629  0.035173244    4368.4082    175.62071 
  781000  0.067331574    4368.2735  0.032654547    4368.4071    175.62101 
  781100  0.075947323     4368.268  0.036736869    4368.4186    175.62058 
  781200  0.073174379    4368.2618  0.041141203    4368.4126    175.62017 
  781300  0.074351187     4368.266  0.038266807    4368.4157     175.6214 
  781400  0.070298201    4368.2654  0.037628455    4368.4084    175.62081 
  781500  0.082404083    4368.2685  0.034256041    4368.4263    175.62178 
  781600  0.077370101    4368.2705  0.041747366    4368.4283     175.6207 
  781700  0.077023306    4368.2584  0.034545791    4368.4084    175.62075 
  781800  0.064071213    4368.2733  0.030753344    4368.4001    175.61953 
  781900  0.065899967    4368.2644  0.033754752     4368.397    175.62123 
  782000  0.067240666    4368.2681  0.041132527      4368.41    175.62092 
  782100  0.077789763    4368.2716  0.034332452    4368.4225    175.62048 
  782200   0.07071061    4368.2674  0.038023935    4368.4114    175.62183 
  782300  0.075455744    4368.2614  0.042427237     4368.417    175.62058 
  782400  0.079257877    4368.2672   0.03672345    4368.4227    175.62018 
  782500  0.078848176    4368.2734  0.031436431     4368.423    175.62044 
  782600  0.079703003      4368.27  0.033601686    4368.4231     175.6212 
  782700  0.077674732    4368.2666  0.048107315    4368.4312    175.62029 
  782800  0.075042361     4368.272  0.038457671    4368.4229    175.62081 
  782900   0.07689708    4368.2702  0.035475863    4368.4209    175.62026 
  783000  0.079363291    4368.2667  0.046983246    4368.4326    175.62086 
  783100  0.073622235    4368.2675  0.042908899    4368.4207    175.62084 
  783200  0.087049283    4368.2657  0.036114728    4368.4323    175.62042 
  783300  0.073861285    4368.2725  0.037590497    4368.4208    175.62009 
  783400  0.078649895    4368.2658  0.032938728    4368.4166    175.62141 
  783500  0.067642801    4368.2666  0.032689574    4368.4007    175.62001 
  783600  0.074772405    4368.2693  0.038435509    4368.4198    175.62081 
  783700  0.069910318    4368.2639  0.034212199    4368.4029    175.62042 
  783800  0.071353903     4368.265  0.038214032    4368.4102    175.62035 
  783900  0.071877344    4368.2723  0.032877687    4368.4129    175.62038 
  784000   0.07954273    4368.2644  0.040775371    4368.4244    175.62072 
  784100  0.084407939    4368.2601  0.038369843     4368.425    175.62146 
  784200  0.081695439    4368.2691  0.044051491    4368.4356    175.62033 
  784300   0.07924737    4368.2647  0.041857829    4368.4253    175.62084 
  784400  0.084278334    4368.2661  0.036019888    4368.4285    175.62067 
  784500  0.090787826    4368.2659  0.041912019    4368.4439    175.62075 
  784600  0.080267429    4368.2653   0.04133304    4368.4269    175.62053 
  784700  0.079455085    4368.2691  0.031205551    4368.4194    175.62067 
  784800   0.07514815    4368.2655  0.041545668    4368.4197    175.62006 
  784900  0.077247851    4368.2675   0.04433714    4368.4276    175.61966 
  785000  0.076157016    4368.2648   0.04330604    4368.4222    175.62083 
  785100   0.07535178    4368.2662  0.042975064    4368.4221    175.62028 
  785200  0.072974746    4368.2671  0.052085622    4368.4286    175.61932 
  785300  0.075435314    4368.2674  0.043749304    4368.4242    175.62008 
  785400  0.075726594    4368.2634  0.043173398    4368.4201    175.62063 
  785500  0.073885237     4368.266   0.04198601    4368.4187    175.62081 
  785600  0.082085326    4368.2677  0.033561998    4368.4243    175.62105 
  785700  0.067517891    4368.2642  0.040027083    4368.4055    175.62002 
  785800   0.08256282    4368.2635  0.034147337    4368.4214    175.62086 
  785900  0.080248548    4368.2636  0.032271577    4368.4162    175.62111 
  786000  0.080709166    4368.2673  0.045722096     4368.434     175.6214 
  786100  0.080965274    4368.2642     0.042325    4368.4279    175.62024 
  786200  0.084737586    4368.2621  0.034443813    4368.4235    175.62065 
  786300  0.078252213    4368.2718  0.037745177    4368.4268    175.62026 
  786400  0.085288733    4368.2673  0.035857339     4368.431    175.62101 
  786500  0.076744869    4368.2699  0.033341041    4368.4183    175.62084 
  786600  0.082585183    4368.2657   0.03219133    4368.4217     175.6207 
  786700  0.078913309    4368.2682  0.035684604    4368.4221    175.61997 
  786800  0.080257817    4368.2678  0.042174952    4368.4302    175.61967 
  786900  0.080265354    4368.2644  0.043936938    4368.4287    175.62049 
  787000  0.083213817    4368.2647  0.046656951    4368.4361    175.62083 
  787100  0.081601531    4368.2686  0.036078666     4368.427    175.62099 
  787200  0.080551993    4368.2731   0.03446134    4368.4283    175.62068 
  787300  0.075482677    4368.2659  0.034649913    4368.4137    175.62039 
  787400  0.069719017     4368.266  0.035126716    4368.4056    175.62055 
  787500  0.077042092    4368.2681  0.030867605    4368.4145    175.62087 
  787600  0.077017607    4368.2682  0.037703465    4368.4214    175.62021 
  787700  0.083914794    4368.2692  0.039024451     4368.434     175.6207 
  787800  0.070697572    4368.2707  0.030941756    4368.4076    175.62058 
  787900  0.067402413    4368.2711  0.049669991    4368.4218    175.62028 
  788000  0.078829904    4368.2728  0.047008841    4368.4379    175.62063 
  788100  0.079910264    4368.2735  0.044642621    4368.4379    175.61939 
  788200  0.078565159    4368.2669   0.04322628    4368.4279    175.62001 
  788300  0.079263037    4368.2714  0.031205363    4368.4214    175.62083 
  788400  0.073979968    4368.2693  0.033718894    4368.4139    175.62089 
  788500  0.082288564    4368.2716  0.029861844    4368.4248    175.62048 
  788600  0.067720568    4368.2583  0.038254477     4368.398    175.62126 
  788700  0.070761735    4368.2679  0.032560302    4368.4065    175.62052 
  788800  0.072750347    4368.2651  0.030879136     4368.405    175.62076 
  788900  0.069541045    4368.2689  0.035089144    4368.4082    175.62062 
  789000  0.078344555    4368.2654   0.03705645    4368.4199    175.62002 
  789100  0.072014384    4368.2704  0.039058197    4368.4174    175.61957 
  789200  0.086872485    4368.2683  0.039542601     4368.438     175.6201 
  789300  0.082298976    4368.2746  0.036235768    4368.4342    175.62145 
  789400  0.078797493     4368.272  0.038658845    4368.4287    175.62023 
  789500  0.076599907    4368.2722  0.044034936    4368.4311    175.61983 
  789600  0.081124618    4368.2691  0.045149309    4368.4359     175.6207 
  789700  0.076748799     4368.264  0.054020561     4368.433     175.6208 
  789800  0.079195401    4368.2693  0.040587378    4368.4286    175.62017 
  789900  0.081296617    4368.2668  0.043726659    4368.4324    175.62165 
  790000  0.076550322    4368.2684  0.044791811    4368.4279    175.62043 
  790100  0.082186587    4368.2649  0.044986639    4368.4331    175.62142 
  790200  0.077434762    4368.2695  0.047910499    4368.4335    175.62159 
  790300  0.070662622      4368.26  0.051985791    4368.4178    175.62009 
  790400  0.075041538    4368.2683  0.031985322    4368.4128    175.62077 
  790500  0.068151469    4368.2722   0.03677274    4368.4111    175.62014 
  790600   0.06846587    4368.2652  0.036192066     4368.404    175.61996 
  790700  0.060952699    4368.2655  0.034988495    4368.3918    175.61954 
  790800  0.062782562    4368.2637  0.044845532    4368.4027    175.62042 
  790900  0.075282034    4368.2678  0.038535409    4368.4192    175.62084 
  791000  0.074231866    4368.2664  0.034043955    4368.4117    175.61984 
  791100  0.060534653    4368.2639  0.044090754    4368.3987    175.62042 
  791200  0.077164526    4368.2671   0.03552236    4368.4183    175.62013 
  791300  0.071910729    4368.2666  0.040096541    4368.4145    175.62033 
  791400  0.067133692    4368.2741  0.035771727    4368.4105    175.62078 
  791500  0.071363352    4368.2748  0.029785479    4368.4116    175.62017 
  791600  0.067986483    4368.2683  0.042469296    4368.4127    175.62052 
  791700  0.071011913    4368.2698  0.042585069    4368.4188    175.62077 
  791800  0.077326697     4368.268  0.039396576    4368.4233    175.61983 
  791900  0.075568267    4368.2713  0.040572692    4368.4251    175.62057 
  792000  0.069963753    4368.2715  0.033075532    4368.4094    175.62034 
  792100  0.070635671     4368.265  0.038357604    4368.4092    175.62055 
  792200  0.079102412    4368.2702  0.038319106    4368.4271    175.61979 
  792300  0.076031107    4368.2694   0.03761747     4368.421    175.62052 
  792400  0.068738215    4368.2692  0.034772031     4368.407    175.62025 
  792500   0.06586402    4368.2711  0.044895883    4368.4147    175.62085 
  792600  0.073314038    4368.2688   0.03094759    4368.4096    175.62031 
  792700  0.082113385     4368.272  0.031714032    4368.4268    175.62076 
  792800  0.086283552    4368.2716  0.043121619    4368.4441    175.62104 
  792900  0.074536268    4368.2688  0.046083011    4368.4266    175.61984 
  793000  0.072174942    4368.2666  0.035716878    4368.4105    175.62109 
  793100  0.071373093    4368.2696  0.031886832    4368.4085    175.62013 
  793200  0.069004738    4368.2686  0.037757118    4368.4098    175.61986 
  793300  0.078989603    4368.2699  0.037587702    4368.4259    175.62087 
  793400  0.064663586    4368.2747  0.036827138    4368.4084    175.62018 
  793500  0.072136933    4368.2693  0.046423574    4368.4239    175.61932 
  793600  0.070905511    4368.2687  0.039600127    4368.4145    175.62096 
  793700  0.066390949    4368.2727  0.036389068    4368.4086    175.62095 
  793800  0.065168091    4368.2741  0.034160025    4368.4059    175.62093 
  793900  0.069468218    4368.2702  0.032596062     4368.407     175.6203 
  794000  0.076039224    4368.2767  0.037051325    4368.4277    175.62058 
  794100  0.077664376    4368.2659  0.038908045    4368.4213    175.62132 
  794200  0.063896119    4368.2677   0.04237699    4368.4058    175.62022 
  794300  0.065928856    4368.2695  0.036549079    4368.4049    175.61995 
  794400  0.063099943    4368.2665  0.032443884    4368.3935    175.62027 
  794500   0.06055726     4368.269  0.039298772    4368.3991    175.62015 
  794600  0.070304287    4368.2686  0.035529014    4368.4095     175.6211 
  794700  0.069836204    4368.2595  0.036924361    4368.4011    175.62046 
  794800  0.070820228    4368.2722  0.030203321    4368.4086    175.61979 
  794900  0.072718243    4368.2639  0.035990916    4368.4089    175.62102 
  795000  0.075046963    4368.2666  0.042630897    4368.4218    175.62106 
  795100  0.078500091    4368.2699  0.039262412    4368.4268    175.61962 
  795200  0.070668301    4368.2647  0.037214329    4368.4079    175.62155 
  795300  0.064508214    4368.2634  0.053161132    4368.4133    175.62043 
  795400  0.072167684    4368.2695   0.04074369    4368.4184    175.62066 
  795500   0.07232115     4368.261  0.038363433    4368.4077    175.61978 
  795600  0.076386501     4368.269  0.040485328    4368.4239    175.62043 
  795700  0.089357828    4368.2714  0.038522895    4368.4439    175.62075 
  795800  0.079490203    4368.2689  0.036761172    4368.4248    175.62116 
  795900  0.074385164    4368.2716  0.043607826    4368.4267    175.62128 
  796000  0.074631099     4368.268  0.033986927    4368.4138     175.6204 
  796100  0.074104969    4368.2643  0.038900328    4368.4143    175.62029 
  796200  0.070664924    4368.2668  0.035914121    4368.4086    175.62107 
  796300  0.073488931    4368.2742  0.035066777    4368.4194    175.62128 
  796400   0.07446072    4368.2689  0.036386255    4368.4169    175.62031 
  796500   0.07454594    4368.2661  0.042932376    4368.4208    175.62111 
  796600  0.076516972    4368.2628  0.048990667    4368.4264    175.61938 
  796700  0.076283111    4368.2664  0.039654007    4368.4204    175.62047 
  796800  0.068155983    4368.2641  0.040892436    4368.4072    175.61976 
  796900   0.07315012    4368.2654   0.03313989    4368.4082    175.62038 
  797000  0.079407766     4368.275  0.033819684    4368.4278    175.62044 
  797100    0.0798047    4368.2701  0.032305959     4368.422    175.62061 
  797200  0.076281523    4368.2694  0.042713388    4368.4264    175.61989 
  797300  0.084700041    4368.2626  0.031397228     4368.421    175.62117 
  797400  0.085189121    4368.2626  0.036164093    4368.4264    175.62114 
  797500  0.080177489    4368.2652  0.036201958    4368.4216     175.6206 
  797600  0.075297096    4368.2673  0.038635759    4368.4188    175.62025 
  797700  0.069587486    4368.2653  0.030686108    4368.4003    175.62148 
  797800  0.083579668    4368.2707  0.036827545    4368.4328    175.62058 
  797900  0.075236971    4368.2679  0.042415955    4368.4231    175.62109 
  798000  0.075241591    4368.2591  0.040438063    4368.4123    175.62111 
  798100  0.066825718    4368.2699  0.037636897    4368.4077    175.62028 
  798200  0.060246875    4368.2715  0.039536203    4368.4013     175.6205 
  798300  0.067336375     4368.273  0.041195368    4368.4151    175.61969 
  798400  0.069954673    4368.2684  0.031079912    4368.4043    175.62081 
  798500  0.073232401    4368.2761  0.028386073    4368.4143    175.62131 
  798600  0.071271121    4368.2707  0.034505022     4368.412    175.62139 
  798700  0.067028117    4368.2637  0.038094125    4368.4022    175.62076 
  798800  0.076387805    4368.2607  0.033974464    4368.4091    175.62108 
  798900  0.081784309    4368.2632  0.027821181    4368.4136    175.62104 
  799000  0.078630538    4368.2665  0.035817519    4368.4202    175.62082 
  799100  0.076290604    4368.2673  0.033978221    4368.4156    175.62027 
  799200  0.067582091    4368.2694  0.042565689    4368.4133    175.61983 
  799300  0.072201892     4368.264  0.031035742    4368.4033    175.62101 
  799400  0.078622612    4368.2715  0.035636605     4368.425    175.62021 
  799500  0.078975608    4368.2629  0.034265461    4368.4155    175.61912 
  799600  0.070296166    4368.2687  0.040012257    4368.4141    175.61893 
  799700  0.085306195    4368.2704  0.044657135    4368.4429    175.62191 
  799800  0.079774527    4368.2738  0.040739394    4368.4341    175.61996 
  799900  0.073702122    4368.2682  0.035473135    4368.4141    175.62016 
  800000  0.080291388    4368.2679  0.032076827    4368.4203    175.62082 
Loop time of 76.0622 on 1 procs for 800000 steps with 1318 atoms

Performance: 4543650.881 tau/day, 10517.710 timesteps/s
97.5% CPU use with 1 MPI tasks x 1 OpenMP threads

MPI task timing breakdown:
Section |  min time  |  avg time  |  max time  |%varavg| %total
---------------------------------------------------------------
Pair    | 41.287     | 41.287     | 41.287     |   0.0 | 54.28
Bond    | 0.95948    | 0.95948    | 0.95948    |   0.0 |  1.26
Neigh   | 21.397     | 21.397     | 21.397     |   0.0 | 28.13
Comm    | 1.7385     | 1.7385     | 1.7385     |   0.0 |  2.29
Output  | 3.3709     | 3.3709     | 3.3709     |   0.0 |  4.43
Modify  | 6.0322     | 6.0322     | 6.0322     |   0.0 |  7.93
Other   |            | 1.278      |            |       |  1.68

Nlocal:        1318.00 ave        1318 max        1318 min
Histogram: 1 0 0 0 0 0 0 0 0 0
Nghost:        181.000 ave         181 max         181 min
Histogram: 1 0 0 0 0 0 0 0 0 0
Neighs:        5954.00 ave        5954 max        5954 min
Histogram: 1 0 0 0 0 0 0 0 0 0

Total # of neighbors = 5954
Ave neighs/atom = 4.5174507
Ave special neighs/atom = 0.44613050
Neighbor list builds = 40000
Dangerous builds not checked




Total wall time: 0:01:16
