length - 60.0, depth- 60.0, width- 100.0, dia- 30.0, dia big- 2.0, dia small - 2.0

4145 atoms
169 bonds
158 angles
0 dihedrals
9 impropers

15 atom types
15 bond types
6 angle types
0 dihedral types
2 improper types

-30.5 30.5 xlo xhi
-30.5 30.5 ylo yhi
-190.0 190.0 zlo zhi

Masses

1 72.0
2 72.0
3 72.0
4 45.0
5 72.0
6 72.0
7 72.0
8 72.0
9 45.0
10 45.0
11 72.0
12 45.0
13 72.0
14 10
15 10

PairIJ Coeffs

1 1 1.19503 4.699999999999999
1 2 1.3384336 4.699999999999999
1 3 0.478012 4.699999999999999
1 4 0.7409186 4.699999999999999
1 5 0.836521 4.699999999999999
1 6 0.5497137999999999 4.699999999999999
1 7 1.19503 4.699999999999999
1 8 1.3384336 4.699999999999999
1 9 0.6453162 4.699999999999999
1 10 1.19503 4.699999999999999
1 11 1.3384336 4.699999999999999
1 12 0.956024 4.699999999999999
1 13 0.7409186 4.699999999999999
2 2 1.3384336 4.699999999999999
2 3 0.478012 4.699999999999999
2 4 0.7409186 4.699999999999999
2 5 0.836521 4.699999999999999
2 6 0.6453162 4.699999999999999
2 7 1.3384336 4.699999999999999
2 8 1.3384336 4.699999999999999
2 9 0.6453162 4.699999999999999
2 10 1.3384336 4.699999999999999
2 11 1.3384336 4.699999999999999
2 12 1.19503 4.699999999999999
2 13 0.7409186 4.699999999999999
3 3 0.836521 4.699999999999999
3 4 0.7409186 4.699999999999999
3 5 0.6453162 4.699999999999999
3 6 0.836521 4.699999999999999
3 7 0.6453162 4.699999999999999
3 8 0.478012 4.699999999999999
3 9 0.7409186 4.699999999999999
3 10 0.6453162 4.699999999999999
3 11 0.478012 4.699999999999999
3 12 0.6453162 4.699999999999999
3 13 0.7409186 4.699999999999999
4 4 0.62739075 4.3
4 5 0.836521 4.699999999999999
4 6 0.836521 4.699999999999999
4 7 0.836521 4.699999999999999
4 8 0.7409186 4.699999999999999
4 9 0.62739075 4.3
4 10 0.62739075 4.3
4 11 0.7409186 4.699999999999999
4 12 0.62739075 4.3
4 13 0.836521 4.699999999999999
5 5 0.836521 4.699999999999999
5 6 0.836521 4.699999999999999
5 7 0.956024 4.699999999999999
5 8 0.836521 4.699999999999999
5 9 0.836521 4.699999999999999
5 10 0.956024 4.699999999999999
5 11 0.836521 4.699999999999999
5 12 0.836521 4.699999999999999
5 13 0.836521 4.699999999999999
6 6 0.836521 4.699999999999999
6 7 0.836521 4.699999999999999
6 8 0.6453162 4.699999999999999
6 9 0.836521 4.699999999999999
6 10 0.836521 4.699999999999999
6 11 0.5497137999999999 4.699999999999999
6 12 0.6453162 4.699999999999999
6 13 0.836521 4.699999999999999
7 7 1.075527 4.699999999999999
7 8 1.075527 4.699999999999999
7 9 0.836521 4.699999999999999
7 10 1.075527 4.699999999999999
7 11 1.19503 4.699999999999999
7 12 1.075527 4.699999999999999
7 13 0.836521 4.699999999999999
8 8 1.19503 4.699999999999999
8 9 0.6453162 4.699999999999999
8 10 1.075527 4.699999999999999
8 11 1.3384336 4.699999999999999
8 12 0.956024 4.699999999999999
8 13 0.7409186 4.699999999999999
9 9 0.62739075 4.3
9 10 0.62739075 4.3
9 11 0.6453162 4.699999999999999
9 12 0.5556889500000001 4.3
9 13 0.836521 4.699999999999999
10 10 0.80664525 4.3
10 11 1.19503 4.699999999999999
10 12 0.80664525 4.3
10 13 0.836521 4.699999999999999
11 11 1.19503 4.699999999999999
11 12 1.19503 4.699999999999999
11 13 0.7409186 4.699999999999999
12 12 0.7170179999999999 4.3
12 13 0.836521 4.699999999999999
13 13 0.836521 4.699999999999999
1 14 50000 6 6.72
2 14 50000 6 6.72
3 14 50000 6 6.72
4 14 50000 6 6.72
5 14 50000 6 6.72
6 14 50000 6 6.72
7 14 50000 6 6.72
8 14 50000 6 6.72
9 14 50000 6 6.72
10 14 50000 6 6.72
11 14 50000 6 6.72
12 14 50000 6 6.72
13 14 50000 6 6.72
14 14 0 1 1.12
1 15 50000 6 6.72
2 15 50000 6 6.72
3 15 50000 6 6.72
4 15 50000 6 6.72
5 15 50000 6 6.72
6 15 50000 6 6.72
7 15 50000 6 6.72
8 15 50000 6 6.72
9 15 50000 6 6.72
10 15 50000 6 6.72
11 15 50000 6 6.72
12 15 50000 6 6.72
13 15 50000 6 6.72
14 15 0 1 1.12
15 15 0 1 1.12

Bond Coeffs

1 1.4937875 3.5
2 8.962725 3.3000000000000003
3 8.962725 3.1
4 5.97515 3.3000000000000003
5 5.97515 3.4000000000000004
6 5.97515 2.8000000000000003
7 5.97515 4.0
8 8.962725 3.0
9 5.97515 3.2
10 8.962725 3.2
11 5.97515 3.0
12 2.987575 4.0
13 11.9503 2.7
14 11.9503 2.6
15 11.9503 3.1

Angle Coeffs

1 2.39006 127
2 2.987575 100
3 5.97515 150
4 2.987575 180
5 5.97515 210
6 5.97515 90


Improper Coeffs

1 5.97515 0
2 23.9006 0

Atoms

1 1 1 1.0000 -0.118 -0.37300003 -49.501
2 1 2 0.0000 2.29302 -2.2483602 -52.1361
3 1 3 0.0000 4.33571 -1.78142 -49.9766
4 1 2 0.0000 -0.25562 -4.05168 -54.423298
5 1 4 0.0000 -0.415483 -1.63737 -56.2958
6 1 4 0.0000 0.932407 0.562209 -57.1895
7 1 4 0.0000 -1.73786 0.0888715 -57.8423
8 1 2 0.0000 -1.14123 -7.28694 -55.1725
9 1 2 0.0000 -2.1686099 -7.32881 -58.400997
10 1 5 0.0000 -1.3371401 -10.287 -59.075897
11 1 1 1.0000 1.12451 -12.259199 -58.5373
12 1 2 0.0000 -2.8564599 -4.512 -59.6128
13 1 6 0.0000 -5.85672 -5.17295 -61.1236
14 1 1 1.0000 -6.5948 -8.07993 -61.037598
15 1 2 0.0000 0.702816 -3.59913 -61.006798
16 1 7 0.0000 1.33344 -1.4437901 -61.9169
17 1 2 0.0000 1.96535 -6.0325403 -59.362797
18 1 2 0.0000 4.23575 -7.9923396 -58.420902
19 1 8 0.0000 5.0293202 -6.00224 -54.8926
20 1 8 0.0000 6.21157 -9.8168 -58.591
21 1 8 0.0000 6.80501 -10.799101 -62.1126
22 1 6 0.0000 7.0236597 -9.3029 -64.2872
23 1 2 0.0000 5.47998 -13.945399 -61.3227
24 1 2 0.0000 3.04599 -13.415999 -63.396202
25 1 4 0.0000 -0.354314 -13.8256 -62.7133
26 1 4 0.0000 -2.7581701 -14.5995 -61.6449
27 1 4 0.0000 -2.52146 -13.7608 -64.1127
28 1 2 0.0000 4.6564 -13.3986 -66.2213
29 1 7 0.0000 5.27653 -11.5318 -68.0532
30 1 2 0.0000 7.36723 -15.002399 -65.770004
31 1 9 0.0000 7.42972 -17.495 -64.2726
32 1 9 0.0000 8.872 -19.5963 -62.9212
33 1 10 0.0000 6.8103 -18.6858 -61.659397
34 1 2 0.0000 10.030499 -12.7116 -65.403
35 1 7 0.0000 10.7223 -11.834299 -67.887505
36 1 2 0.0000 11.7796 -12.3741 -62.4966
37 1 11 -1.0000 10.9991 -15.4357 -61.1793
38 1 8 0.0000 11.1134 -10.9552 -59.9616
39 1 2 0.0000 10.3483 -7.6522303 -61.017197
40 1 2 0.0000 8.93901 -6.23023 -58.7359
41 1 2 0.0000 12.7947 -8.62012 -63.849903
42 1 6 0.0000 12.2429 -6.95359 -66.4405
43 1 1 1.0000 12.319601 -4.8643 -67.9362
44 1 2 0.0000 16.0499 -8.45253 -62.2543
45 1 2 0.0000 15.191999 -7.0449 -59.5801
46 1 2 0.0000 19.477001 -7.55027 -62.892998
47 1 6 0.0000 20.9883 -5.8834896 -65.3207
48 1 1 1.0000 21.8556 -6.08967 -68.2367
49 1 2 0.0000 20.386 -10.4091 -60.584698
50 1 2 0.0000 22.8842 -12.1057 -62.5395
51 1 3 0.0000 25.6526 -11.4944 -61.6232
52 1 2 0.0000 20.5602 -12.4896 -65.2797
53 1 7 0.0000 20.4823 -10.7556 -67.1624
54 1 2 0.0000 17.9109 -13.3851 -63.936302
55 1 9 0.0000 16.4308 -13.4314 -61.2733
56 1 12 0.0000 15.4773 -13.505 -59.1659
57 1 4 0.0000 15.635099 -15.8506 -60.6422
58 1 4 0.0000 14.9508 -16.229399 -58.25
59 1 2 0.0000 15.4765 -12.7803 -65.8787
60 1 6 0.0000 14.0736 -15.2514 -66.8233
61 1 1 1.0000 12.4981 -17.333601 -65.9637
62 1 2 0.0000 15.644701 -10.148 -67.2687
63 1 11 -1.0000 13.5111 -8.82625 -70.8558
64 1 2 0.0000 16.8034 -7.6308103 -67.213806
65 1 11 -1.0000 16.6687 -4.49443 -65.1232
66 1 2 0.0000 17.3106 -7.9997897 -71.2678
67 1 7 0.0000 16.9958 -5.32095 -71.723
68 1 2 0.0000 20.421501 -9.43906 -72.5797
69 1 3 0.0000 19.3447 -9.0941105 -75.7792
70 1 2 0.0000 21.5979 -11.8512 -72.2097
71 1 13 0.0000 23.947899 -13.4829 -75.2638
72 1 2 0.0000 24.4911 -12.286201 -69.882996
73 1 11 -1.0000 25.3619 -10.120601 -66.249
74 1 2 0.0000 23.3955 -14.9024 -68.4988
75 1 9 0.0000 22.424099 -16.2158 -71.129196
76 1 9 0.0000 23.6114 -17.952501 -72.9217
77 1 10 0.0000 21.3865 -17.1076 -73.4699
78 1 2 0.0000 25.9207 -14.2915 -65.9352
79 1 3 0.0000 28.457699 -15.717 -67.6829
80 1 2 0.0000 27.9144 -15.9793 -62.5524
81 1 11 -1.0000 25.932901 -15.777399 -59.0671
82 1 2 0.0000 27.2581 -18.8678 -63.6717
83 1 2 0.0000 29.5339 -20.6213 -63.692596
84 1 8 0.0000 24.630201 -18.6423 -65.5105
85 1 6 0.0000 25.0723 -19.491499 -68.0841
86 1 2 0.0000 22.2773 -17.4913 -63.7925
87 1 6 0.0000 20.781801 -16.548199 -61.3353
88 1 1 1.0000 21.027802 -15.1893 -59.112
89 1 2 0.0000 21.1959 -21.084002 -62.7982
90 1 6 0.0000 23.807098 -21.375698 -61.1287
91 1 1 1.0000 26.214901 -21.705599 -59.568
92 1 2 0.0000 20.9536 -22.2126 -65.9747
93 1 9 0.0000 23.784 -24.2173 -65.622604
94 1 9 0.0000 24.838 -25.8774 -63.9178
95 1 10 0.0000 26.3639 -24.1164 -65.1102
96 1 2 0.0000 17.0845 -23.2074 -65.4011
97 1 3 0.0000 15.1082 -22.997702 -63.266403
98 1 8 0.0000 16.546299 -21.5078 -68.268295
99 1 6 0.0000 13.6814995 -21.545801 -69.846504
100 1 2 0.0000 19.4595 -20.160799 -69.2687
101 1 2 0.0000 18.7209 -17.073 -66.9082
102 1 7 0.0000 17.6425 -18.0357 -64.7921
103 1 2 0.0000 18.361 -15.1554 -69.2059
104 1 6 0.0000 17.5485 -17.7974 -71.3544
105 1 1 1.0000 16.243 -18.1598 -73.962105
106 1 2 0.0000 17.2525 -13.3435 -71.494
107 1 13 0.0000 13.5774 -14.3474 -71.1144
108 1 2 0.0000 16.6893 -12.7132 -74.1878
109 1 3 0.0000 18.4729 -14.495501 -76.1974
110 1 2 0.0000 12.3764 -13.1689 -73.4487
111 1 4 0.0000 12.400399 -10.613001 -75.3054
112 1 4 0.0000 14.3594 -8.812591 -75.6862
113 1 4 0.0000 12.2034 -8.63838 -77.2431
114 1 8 0.0000 8.9241495 -12.231899 -72.4465
115 1 2 0.0000 8.393661 -9.40961 -72.0213
116 1 2 0.0000 9.14061 -6.33719 -72.1445
117 1 3 0.0000 11.6459 -5.21208 -73.6373
118 1 2 0.0000 7.32624 -5.99487 -68.4573
119 1 6 0.0000 4.57563 -5.12953 -69.8776
120 1 1 1.0000 2.4138699 -7.3852997 -69.8406
121 1 2 0.0000 8.21906 -4.2995 -65.3117
122 1 6 0.0000 10.666699 -3.04991 -63.980797
123 1 1 1.0000 12.6623 -3.4988902 -61.878098
124 1 2 0.0000 5.72324 -5.1984 -62.983597
125 1 6 0.0000 6.16504 -3.03857 -61.0668
126 1 1 1.0000 5.4402695 -2.62496 -58.5157
127 1 2 0.0000 3.18401 -6.4264603 -64.8369
128 1 7 0.0000 1.4421799 -4.60939 -66.0123
129 1 2 0.0000 1.89793 -8.889629 -63.593704
130 1 11 -1.0000 -1.91393 -7.4590597 -63.3853
131 1 2 0.0000 0.335545 -10.4916 -66.5376
132 1 5 0.0000 -1.64981 -8.04852 -67.1471
133 1 1 1.0000 -2.14209 -4.92176 -68.8125
134 1 2 0.0000 -0.041656002 -13.3136 -68.1245
135 1 11 -1.0000 1.1475201 -12.4826 -71.614
136 1 2 0.0000 1.8074701 -17.1559 -67.2338
137 1 11 -1.0000 3.52797 -17.0225 -69.853806
138 1 2 0.0000 2.57132 -18.7664 -64.1781
139 1 3 0.0000 1.20115 -18.239 -61.314804
140 1 2 0.0000 -1.4304601 -20.6651 -63.844498
141 1 3 0.0000 -2.5120602 -18.197401 -65.6244
142 1 8 0.0000 -0.22241 -23.1814 -65.2777
143 1 2 0.0000 1.1422 -22.719099 -67.559296
144 1 9 0.0000 4.2845697 -21.911299 -67.343895
145 1 9 0.0000 6.77055 -22.830902 -67.9486
146 1 10 0.0000 6.21192 -20.3566 -67.6874
147 1 2 0.0000 0.44526 -24.138899 -69.976
148 1 3 0.0000 1.7751 -22.5076 -72.4306
149 1 2 0.0000 -2.55794 -26.7556 -68.0202
150 1 6 0.0000 -4.18443 -26.3072 -65.5144
151 1 1 1.0000 -4.55978 -25.2476 -63.0483
152 1 2 0.0000 -1.39467 -29.2737 -68.8345
153 1 6 0.0000 -3.9651098 -30.5252 -70.8436
154 1 1 1.0000 -6.12543 -30.8123 -72.065704
155 1 8 0.0000 -0.63089305 -30.5713 -65.7802
156 1 2 0.0000 1.58915 -28.464401 -64.2128
157 1 7 0.0000 3.18583 -27.2019 -66.037506
158 1 2 0.0000 0.76911205 -26.7832 -61.7334
159 1 2 0.0000 -0.946374 -26.0054 -58.8843
160 1 11 -1.0000 2.3167799 -23.096 -61.2248
161 1 11 -1.0000 5.59541 -23.6291 -62.9073
162 2 14 0 15.0 0.0 -50.0
163 2 14 0 15.0 0.0 -48.0
164 2 14 0 15.0 0.0 -46.0
165 2 14 0 15.0 0.0 -44.0
166 2 14 0 15.0 0.0 -42.0
167 2 14 0 15.0 0.0 -40.0
168 2 14 0 15.0 0.0 -38.0
169 2 14 0 15.0 0.0 -36.0
170 2 14 0 15.0 0.0 -34.0
171 2 14 0 15.0 0.0 -32.0
172 2 14 0 15.0 0.0 -30.0
173 2 14 0 15.0 0.0 -28.0
174 2 14 0 15.0 0.0 -26.0
175 2 14 0 15.0 0.0 -24.0
176 2 14 0 15.0 0.0 -22.0
177 2 14 0 15.0 0.0 -20.0
178 2 14 0 15.0 0.0 -18.0
179 2 14 0 15.0 0.0 -16.0
180 2 14 0 15.0 0.0 -14.0
181 2 14 0 15.0 0.0 -12.0
182 2 14 0 15.0 0.0 -10.0
183 2 14 0 15.0 0.0 -8.0
184 2 14 0 15.0 0.0 -6.0
185 2 14 0 15.0 0.0 -4.0
186 2 14 0 15.0 0.0 -2.0
187 2 14 0 15.0 0.0 0.0
188 2 14 0 15.0 0.0 2.0
189 2 14 0 15.0 0.0 4.0
190 2 14 0 15.0 0.0 6.0
191 2 14 0 15.0 0.0 8.0
192 2 14 0 15.0 0.0 10.0
193 2 14 0 15.0 0.0 12.0
194 2 14 0 15.0 0.0 14.0
195 2 14 0 15.0 0.0 16.0
196 2 14 0 15.0 0.0 18.0
197 2 14 0 15.0 0.0 20.0
198 2 14 0 15.0 0.0 22.0
199 2 14 0 15.0 0.0 24.0
200 2 14 0 15.0 0.0 26.0
201 2 14 0 15.0 0.0 28.0
202 2 14 0 15.0 0.0 30.0
203 2 14 0 15.0 0.0 32.0
204 2 14 0 15.0 0.0 34.0
205 2 14 0 15.0 0.0 36.0
206 2 14 0 15.0 0.0 38.0
207 2 14 0 15.0 0.0 40.0
208 2 14 0 15.0 0.0 42.0
209 2 14 0 15.0 0.0 44.0
210 2 14 0 15.0 0.0 46.0
211 2 14 0 15.0 0.0 48.0
212 2 14 0 15.0 0.0 50.0
213 2 14 0 14.866666666666667 1.995550606279429 -50.0
214 2 14 0 14.866666666666667 1.995550606279429 -48.0
215 2 14 0 14.866666666666667 1.995550606279429 -46.0
216 2 14 0 14.866666666666667 1.995550606279429 -44.0
217 2 14 0 14.866666666666667 1.995550606279429 -42.0
218 2 14 0 14.866666666666667 1.995550606279429 -40.0
219 2 14 0 14.866666666666667 1.995550606279429 -38.0
220 2 14 0 14.866666666666667 1.995550606279429 -36.0
221 2 14 0 14.866666666666667 1.995550606279429 -34.0
222 2 14 0 14.866666666666667 1.995550606279429 -32.0
223 2 14 0 14.866666666666667 1.995550606279429 -30.0
224 2 14 0 14.866666666666667 1.995550606279429 -28.0
225 2 14 0 14.866666666666667 1.995550606279429 -26.0
226 2 14 0 14.866666666666667 1.995550606279429 -24.0
227 2 14 0 14.866666666666667 1.995550606279429 -22.0
228 2 14 0 14.866666666666667 1.995550606279429 -20.0
229 2 14 0 14.866666666666667 1.995550606279429 -18.0
230 2 14 0 14.866666666666667 1.995550606279429 -16.0
231 2 14 0 14.866666666666667 1.995550606279429 -14.0
232 2 14 0 14.866666666666667 1.995550606279429 -12.0
233 2 14 0 14.866666666666667 1.995550606279429 -10.0
234 2 14 0 14.866666666666667 1.995550606279429 -8.0
235 2 14 0 14.866666666666667 1.995550606279429 -6.0
236 2 14 0 14.866666666666667 1.995550606279429 -4.0
237 2 14 0 14.866666666666667 1.995550606279429 -2.0
238 2 14 0 14.866666666666667 1.995550606279429 0.0
239 2 14 0 14.866666666666667 1.995550606279429 2.0
240 2 14 0 14.866666666666667 1.995550606279429 4.0
241 2 14 0 14.866666666666667 1.995550606279429 6.0
242 2 14 0 14.866666666666667 1.995550606279429 8.0
243 2 14 0 14.866666666666667 1.995550606279429 10.0
244 2 14 0 14.866666666666667 1.995550606279429 12.0
245 2 14 0 14.866666666666667 1.995550606279429 14.0
246 2 14 0 14.866666666666667 1.995550606279429 16.0
247 2 14 0 14.866666666666667 1.995550606279429 18.0
248 2 14 0 14.866666666666667 1.995550606279429 20.0
249 2 14 0 14.866666666666667 1.995550606279429 22.0
250 2 14 0 14.866666666666667 1.995550606279429 24.0
251 2 14 0 14.866666666666667 1.995550606279429 26.0
252 2 14 0 14.866666666666667 1.995550606279429 28.0
253 2 14 0 14.866666666666667 1.995550606279429 30.0
254 2 14 0 14.866666666666667 1.995550606279429 32.0
255 2 14 0 14.866666666666667 1.995550606279429 34.0
256 2 14 0 14.866666666666667 1.995550606279429 36.0
257 2 14 0 14.866666666666667 1.995550606279429 38.0
258 2 14 0 14.866666666666667 1.995550606279429 40.0
259 2 14 0 14.866666666666667 1.995550606279429 42.0
260 2 14 0 14.866666666666667 1.995550606279429 44.0
261 2 14 0 14.866666666666667 1.995550606279429 46.0
262 2 14 0 14.866666666666667 1.995550606279429 48.0
263 2 14 0 14.866666666666667 1.995550606279429 50.0
264 2 14 0 14.46903703703704 3.955624757336113 -50.0
265 2 14 0 14.46903703703704 3.955624757336113 -48.0
266 2 14 0 14.46903703703704 3.955624757336113 -46.0
267 2 14 0 14.46903703703704 3.955624757336113 -44.0
268 2 14 0 14.46903703703704 3.955624757336113 -42.0
269 2 14 0 14.46903703703704 3.955624757336113 -40.0
270 2 14 0 14.46903703703704 3.955624757336113 -38.0
271 2 14 0 14.46903703703704 3.955624757336113 -36.0
272 2 14 0 14.46903703703704 3.955624757336113 -34.0
273 2 14 0 14.46903703703704 3.955624757336113 -32.0
274 2 14 0 14.46903703703704 3.955624757336113 -30.0
275 2 14 0 14.46903703703704 3.955624757336113 -28.0
276 2 14 0 14.46903703703704 3.955624757336113 -26.0
277 2 14 0 14.46903703703704 3.955624757336113 -24.0
278 2 14 0 14.46903703703704 3.955624757336113 -22.0
279 2 14 0 14.46903703703704 3.955624757336113 -20.0
280 2 14 0 14.46903703703704 3.955624757336113 -18.0
281 2 14 0 14.46903703703704 3.955624757336113 -16.0
282 2 14 0 14.46903703703704 3.955624757336113 -14.0
283 2 14 0 14.46903703703704 3.955624757336113 -12.0
284 2 14 0 14.46903703703704 3.955624757336113 -10.0
285 2 14 0 14.46903703703704 3.955624757336113 -8.0
286 2 14 0 14.46903703703704 3.955624757336113 -6.0
287 2 14 0 14.46903703703704 3.955624757336113 -4.0
288 2 14 0 14.46903703703704 3.955624757336113 -2.0
289 2 14 0 14.46903703703704 3.955624757336113 0.0
290 2 14 0 14.46903703703704 3.955624757336113 2.0
291 2 14 0 14.46903703703704 3.955624757336113 4.0
292 2 14 0 14.46903703703704 3.955624757336113 6.0
293 2 14 0 14.46903703703704 3.955624757336113 8.0
294 2 14 0 14.46903703703704 3.955624757336113 10.0
295 2 14 0 14.46903703703704 3.955624757336113 12.0
296 2 14 0 14.46903703703704 3.955624757336113 14.0
297 2 14 0 14.46903703703704 3.955624757336113 16.0
298 2 14 0 14.46903703703704 3.955624757336113 18.0
299 2 14 0 14.46903703703704 3.955624757336113 20.0
300 2 14 0 14.46903703703704 3.955624757336113 22.0
301 2 14 0 14.46903703703704 3.955624757336113 24.0
302 2 14 0 14.46903703703704 3.955624757336113 26.0
303 2 14 0 14.46903703703704 3.955624757336113 28.0
304 2 14 0 14.46903703703704 3.955624757336113 30.0
305 2 14 0 14.46903703703704 3.955624757336113 32.0
306 2 14 0 14.46903703703704 3.955624757336113 34.0
307 2 14 0 14.46903703703704 3.955624757336113 36.0
308 2 14 0 14.46903703703704 3.955624757336113 38.0
309 2 14 0 14.46903703703704 3.955624757336113 40.0
310 2 14 0 14.46903703703704 3.955624757336113 42.0
311 2 14 0 14.46903703703704 3.955624757336113 44.0
312 2 14 0 14.46903703703704 3.955624757336113 46.0
313 2 14 0 14.46903703703704 3.955624757336113 48.0
314 2 14 0 14.46903703703704 3.955624757336113 50.0
315 2 14 0 13.814180082304533 5.845376690484601 -50.0
316 2 14 0 13.814180082304533 5.845376690484601 -48.0
317 2 14 0 13.814180082304533 5.845376690484601 -46.0
318 2 14 0 13.814180082304533 5.845376690484601 -44.0
319 2 14 0 13.814180082304533 5.845376690484601 -42.0
320 2 14 0 13.814180082304533 5.845376690484601 -40.0
321 2 14 0 13.814180082304533 5.845376690484601 -38.0
322 2 14 0 13.814180082304533 5.845376690484601 -36.0
323 2 14 0 13.814180082304533 5.845376690484601 -34.0
324 2 14 0 13.814180082304533 5.845376690484601 -32.0
325 2 14 0 13.814180082304533 5.845376690484601 -30.0
326 2 14 0 13.814180082304533 5.845376690484601 -28.0
327 2 14 0 13.814180082304533 5.845376690484601 -26.0
328 2 14 0 13.814180082304533 5.845376690484601 -24.0
329 2 14 0 13.814180082304533 5.845376690484601 -22.0
330 2 14 0 13.814180082304533 5.845376690484601 -20.0
331 2 14 0 13.814180082304533 5.845376690484601 -18.0
332 2 14 0 13.814180082304533 5.845376690484601 -16.0
333 2 14 0 13.814180082304533 5.845376690484601 -14.0
334 2 14 0 13.814180082304533 5.845376690484601 -12.0
335 2 14 0 13.814180082304533 5.845376690484601 -10.0
336 2 14 0 13.814180082304533 5.845376690484601 -8.0
337 2 14 0 13.814180082304533 5.845376690484601 -6.0
338 2 14 0 13.814180082304533 5.845376690484601 -4.0
339 2 14 0 13.814180082304533 5.845376690484601 -2.0
340 2 14 0 13.814180082304533 5.845376690484601 0.0
341 2 14 0 13.814180082304533 5.845376690484601 2.0
342 2 14 0 13.814180082304533 5.845376690484601 4.0
343 2 14 0 13.814180082304533 5.845376690484601 6.0
344 2 14 0 13.814180082304533 5.845376690484601 8.0
345 2 14 0 13.814180082304533 5.845376690484601 10.0
346 2 14 0 13.814180082304533 5.845376690484601 12.0
347 2 14 0 13.814180082304533 5.845376690484601 14.0
348 2 14 0 13.814180082304533 5.845376690484601 16.0
349 2 14 0 13.814180082304533 5.845376690484601 18.0
350 2 14 0 13.814180082304533 5.845376690484601 20.0
351 2 14 0 13.814180082304533 5.845376690484601 22.0
352 2 14 0 13.814180082304533 5.845376690484601 24.0
353 2 14 0 13.814180082304533 5.845376690484601 26.0
354 2 14 0 13.814180082304533 5.845376690484601 28.0
355 2 14 0 13.814180082304533 5.845376690484601 30.0
356 2 14 0 13.814180082304533 5.845376690484601 32.0
357 2 14 0 13.814180082304533 5.845376690484601 34.0
358 2 14 0 13.814180082304533 5.845376690484601 36.0
359 2 14 0 13.814180082304533 5.845376690484601 38.0
360 2 14 0 13.814180082304533 5.845376690484601 40.0
361 2 14 0 13.814180082304533 5.845376690484601 42.0
362 2 14 0 13.814180082304533 5.845376690484601 44.0
363 2 14 0 13.814180082304533 5.845376690484601 46.0
364 2 14 0 13.814180082304533 5.845376690484601 48.0
365 2 14 0 13.814180082304533 5.845376690484601 50.0
366 2 14 0 12.913737703886616 7.631210815802251 -50.0
367 2 14 0 12.913737703886616 7.631210815802251 -48.0
368 2 14 0 12.913737703886616 7.631210815802251 -46.0
369 2 14 0 12.913737703886616 7.631210815802251 -44.0
370 2 14 0 12.913737703886616 7.631210815802251 -42.0
371 2 14 0 12.913737703886616 7.631210815802251 -40.0
372 2 14 0 12.913737703886616 7.631210815802251 -38.0
373 2 14 0 12.913737703886616 7.631210815802251 -36.0
374 2 14 0 12.913737703886616 7.631210815802251 -34.0
375 2 14 0 12.913737703886616 7.631210815802251 -32.0
376 2 14 0 12.913737703886616 7.631210815802251 -30.0
377 2 14 0 12.913737703886616 7.631210815802251 -28.0
378 2 14 0 12.913737703886616 7.631210815802251 -26.0
379 2 14 0 12.913737703886616 7.631210815802251 -24.0
380 2 14 0 12.913737703886616 7.631210815802251 -22.0
381 2 14 0 12.913737703886616 7.631210815802251 -20.0
382 2 14 0 12.913737703886616 7.631210815802251 -18.0
383 2 14 0 12.913737703886616 7.631210815802251 -16.0
384 2 14 0 12.913737703886616 7.631210815802251 -14.0
385 2 14 0 12.913737703886616 7.631210815802251 -12.0
386 2 14 0 12.913737703886616 7.631210815802251 -10.0
387 2 14 0 12.913737703886616 7.631210815802251 -8.0
388 2 14 0 12.913737703886616 7.631210815802251 -6.0
389 2 14 0 12.913737703886616 7.631210815802251 -4.0
390 2 14 0 12.913737703886616 7.631210815802251 -2.0
391 2 14 0 12.913737703886616 7.631210815802251 0.0
392 2 14 0 12.913737703886616 7.631210815802251 2.0
393 2 14 0 12.913737703886616 7.631210815802251 4.0
394 2 14 0 12.913737703886616 7.631210815802251 6.0
395 2 14 0 12.913737703886616 7.631210815802251 8.0
396 2 14 0 12.913737703886616 7.631210815802251 10.0
397 2 14 0 12.913737703886616 7.631210815802251 12.0
398 2 14 0 12.913737703886616 7.631210815802251 14.0
399 2 14 0 12.913737703886616 7.631210815802251 16.0
400 2 14 0 12.913737703886616 7.631210815802251 18.0
401 2 14 0 12.913737703886616 7.631210815802251 20.0
402 2 14 0 12.913737703886616 7.631210815802251 22.0
403 2 14 0 12.913737703886616 7.631210815802251 24.0
404 2 14 0 12.913737703886616 7.631210815802251 26.0
405 2 14 0 12.913737703886616 7.631210815802251 28.0
406 2 14 0 12.913737703886616 7.631210815802251 30.0
407 2 14 0 12.913737703886616 7.631210815802251 32.0
408 2 14 0 12.913737703886616 7.631210815802251 34.0
409 2 14 0 12.913737703886616 7.631210815802251 36.0
410 2 14 0 12.913737703886616 7.631210815802251 38.0
411 2 14 0 12.913737703886616 7.631210815802251 40.0
412 2 14 0 12.913737703886616 7.631210815802251 42.0
413 2 14 0 12.913737703886616 7.631210815802251 44.0
414 2 14 0 12.913737703886616 7.631210815802251 46.0
415 2 14 0 12.913737703886616 7.631210815802251 48.0
416 2 14 0 12.913737703886616 7.631210815802251 50.0
417 2 14 0 11.783717766288492 9.281378971061194 -50.0
418 2 14 0 11.783717766288492 9.281378971061194 -48.0
419 2 14 0 11.783717766288492 9.281378971061194 -46.0
420 2 14 0 11.783717766288492 9.281378971061194 -44.0
421 2 14 0 11.783717766288492 9.281378971061194 -42.0
422 2 14 0 11.783717766288492 9.281378971061194 -40.0
423 2 14 0 11.783717766288492 9.281378971061194 -38.0
424 2 14 0 11.783717766288492 9.281378971061194 -36.0
425 2 14 0 11.783717766288492 9.281378971061194 -34.0
426 2 14 0 11.783717766288492 9.281378971061194 -32.0
427 2 14 0 11.783717766288492 9.281378971061194 -30.0
428 2 14 0 11.783717766288492 9.281378971061194 -28.0
429 2 14 0 11.783717766288492 9.281378971061194 -26.0
430 2 14 0 11.783717766288492 9.281378971061194 -24.0
431 2 14 0 11.783717766288492 9.281378971061194 -22.0
432 2 14 0 11.783717766288492 9.281378971061194 -20.0
433 2 14 0 11.783717766288492 9.281378971061194 -18.0
434 2 14 0 11.783717766288492 9.281378971061194 -16.0
435 2 14 0 11.783717766288492 9.281378971061194 -14.0
436 2 14 0 11.783717766288492 9.281378971061194 -12.0
437 2 14 0 11.783717766288492 9.281378971061194 -10.0
438 2 14 0 11.783717766288492 9.281378971061194 -8.0
439 2 14 0 11.783717766288492 9.281378971061194 -6.0
440 2 14 0 11.783717766288492 9.281378971061194 -4.0
441 2 14 0 11.783717766288492 9.281378971061194 -2.0
442 2 14 0 11.783717766288492 9.281378971061194 0.0
443 2 14 0 11.783717766288492 9.281378971061194 2.0
444 2 14 0 11.783717766288492 9.281378971061194 4.0
445 2 14 0 11.783717766288492 9.281378971061194 6.0
446 2 14 0 11.783717766288492 9.281378971061194 8.0
447 2 14 0 11.783717766288492 9.281378971061194 10.0
448 2 14 0 11.783717766288492 9.281378971061194 12.0
449 2 14 0 11.783717766288492 9.281378971061194 14.0
450 2 14 0 11.783717766288492 9.281378971061194 16.0
451 2 14 0 11.783717766288492 9.281378971061194 18.0
452 2 14 0 11.783717766288492 9.281378971061194 20.0
453 2 14 0 11.783717766288492 9.281378971061194 22.0
454 2 14 0 11.783717766288492 9.281378971061194 24.0
455 2 14 0 11.783717766288492 9.281378971061194 26.0
456 2 14 0 11.783717766288492 9.281378971061194 28.0
457 2 14 0 11.783717766288492 9.281378971061194 30.0
458 2 14 0 11.783717766288492 9.281378971061194 32.0
459 2 14 0 11.783717766288492 9.281378971061194 34.0
460 2 14 0 11.783717766288492 9.281378971061194 36.0
461 2 14 0 11.783717766288492 9.281378971061194 38.0
462 2 14 0 11.783717766288492 9.281378971061194 40.0
463 2 14 0 11.783717766288492 9.281378971061194 42.0
464 2 14 0 11.783717766288492 9.281378971061194 44.0
465 2 14 0 11.783717766288492 9.281378971061194 46.0
466 2 14 0 11.783717766288492 9.281378971061194 48.0
467 2 14 0 11.783717766288492 9.281378971061194 50.0
468 2 14 0 10.44420951284524 10.766544833501275 -50.0
469 2 14 0 10.44420951284524 10.766544833501275 -48.0
470 2 14 0 10.44420951284524 10.766544833501275 -46.0
471 2 14 0 10.44420951284524 10.766544833501275 -44.0
472 2 14 0 10.44420951284524 10.766544833501275 -42.0
473 2 14 0 10.44420951284524 10.766544833501275 -40.0
474 2 14 0 10.44420951284524 10.766544833501275 -38.0
475 2 14 0 10.44420951284524 10.766544833501275 -36.0
476 2 14 0 10.44420951284524 10.766544833501275 -34.0
477 2 14 0 10.44420951284524 10.766544833501275 -32.0
478 2 14 0 10.44420951284524 10.766544833501275 -30.0
479 2 14 0 10.44420951284524 10.766544833501275 -28.0
480 2 14 0 10.44420951284524 10.766544833501275 -26.0
481 2 14 0 10.44420951284524 10.766544833501275 -24.0
482 2 14 0 10.44420951284524 10.766544833501275 -22.0
483 2 14 0 10.44420951284524 10.766544833501275 -20.0
484 2 14 0 10.44420951284524 10.766544833501275 -18.0
485 2 14 0 10.44420951284524 10.766544833501275 -16.0
486 2 14 0 10.44420951284524 10.766544833501275 -14.0
487 2 14 0 10.44420951284524 10.766544833501275 -12.0
488 2 14 0 10.44420951284524 10.766544833501275 -10.0
489 2 14 0 10.44420951284524 10.766544833501275 -8.0
490 2 14 0 10.44420951284524 10.766544833501275 -6.0
491 2 14 0 10.44420951284524 10.766544833501275 -4.0
492 2 14 0 10.44420951284524 10.766544833501275 -2.0
493 2 14 0 10.44420951284524 10.766544833501275 0.0
494 2 14 0 10.44420951284524 10.766544833501275 2.0
495 2 14 0 10.44420951284524 10.766544833501275 4.0
496 2 14 0 10.44420951284524 10.766544833501275 6.0
497 2 14 0 10.44420951284524 10.766544833501275 8.0
498 2 14 0 10.44420951284524 10.766544833501275 10.0
499 2 14 0 10.44420951284524 10.766544833501275 12.0
500 2 14 0 10.44420951284524 10.766544833501275 14.0
501 2 14 0 10.44420951284524 10.766544833501275 16.0
502 2 14 0 10.44420951284524 10.766544833501275 18.0
503 2 14 0 10.44420951284524 10.766544833501275 20.0
504 2 14 0 10.44420951284524 10.766544833501275 22.0
505 2 14 0 10.44420951284524 10.766544833501275 24.0
506 2 14 0 10.44420951284524 10.766544833501275 26.0
507 2 14 0 10.44420951284524 10.766544833501275 28.0
508 2 14 0 10.44420951284524 10.766544833501275 30.0
509 2 14 0 10.44420951284524 10.766544833501275 32.0
510 2 14 0 10.44420951284524 10.766544833501275 34.0
511 2 14 0 10.44420951284524 10.766544833501275 36.0
512 2 14 0 10.44420951284524 10.766544833501275 38.0
513 2 14 0 10.44420951284524 10.766544833501275 40.0
514 2 14 0 10.44420951284524 10.766544833501275 42.0
515 2 14 0 10.44420951284524 10.766544833501275 44.0
516 2 14 0 10.44420951284524 10.766544833501275 46.0
517 2 14 0 10.44420951284524 10.766544833501275 48.0
518 2 14 0 10.44420951284524 10.766544833501275 50.0
519 2 14 0 8.919026423618076 12.06030545445689 -50.0
520 2 14 0 8.919026423618076 12.06030545445689 -48.0
521 2 14 0 8.919026423618076 12.06030545445689 -46.0
522 2 14 0 8.919026423618076 12.06030545445689 -44.0
523 2 14 0 8.919026423618076 12.06030545445689 -42.0
524 2 14 0 8.919026423618076 12.06030545445689 -40.0
525 2 14 0 8.919026423618076 12.06030545445689 -38.0
526 2 14 0 8.919026423618076 12.06030545445689 -36.0
527 2 14 0 8.919026423618076 12.06030545445689 -34.0
528 2 14 0 8.919026423618076 12.06030545445689 -32.0
529 2 14 0 8.919026423618076 12.06030545445689 -30.0
530 2 14 0 8.919026423618076 12.06030545445689 -28.0
531 2 14 0 8.919026423618076 12.06030545445689 -26.0
532 2 14 0 8.919026423618076 12.06030545445689 -24.0
533 2 14 0 8.919026423618076 12.06030545445689 -22.0
534 2 14 0 8.919026423618076 12.06030545445689 -20.0
535 2 14 0 8.919026423618076 12.06030545445689 -18.0
536 2 14 0 8.919026423618076 12.06030545445689 -16.0
537 2 14 0 8.919026423618076 12.06030545445689 -14.0
538 2 14 0 8.919026423618076 12.06030545445689 -12.0
539 2 14 0 8.919026423618076 12.06030545445689 -10.0
540 2 14 0 8.919026423618076 12.06030545445689 -8.0
541 2 14 0 8.919026423618076 12.06030545445689 -6.0
542 2 14 0 8.919026423618076 12.06030545445689 -4.0
543 2 14 0 8.919026423618076 12.06030545445689 -2.0
544 2 14 0 8.919026423618076 12.06030545445689 0.0
545 2 14 0 8.919026423618076 12.06030545445689 2.0
546 2 14 0 8.919026423618076 12.06030545445689 4.0