LAMMPS (31 Aug 2021)
# only protein 1hrc

units		real
boundary	p p p
atom_style	full
dielectric 	80

pair_style	lj/cut/coul/debye 7.1e-12 12
bond_style      harmonic
special_bonds 	lj/coul 0.0 1.0 0.0
angle_style     cosine/squared
dihedral_style  charmm
improper_style  harmonic

read_data	init_conf_fin/data64.txt
Reading data file ...
  orthogonal box = (-30.500000 -30.500000 -190.00000) to (30.500000 30.500000 190.00000)
  1 by 1 by 1 MPI processor grid
  reading atoms ...
  4145 atoms
  scanning bonds ...
  2 = max bonds/atom
  scanning angles ...
  2 = max angles/atom
  scanning impropers ...
  2 = max impropers/atom
  reading bonds ...
  169 bonds
  reading angles ...
  158 angles
  reading impropers ...
  9 impropers
Finding 1-2 1-3 1-4 neighbors ...
  special bond factors lj:    0        1        0       
  special bond factors coul:  0        1        0       
     3 = max # of 1-2 neighbors
     6 = max # of 1-3 neighbors
    16 = max # of 1-4 neighbors
    15 = max # of special neighbors
  special bonds CPU = 0.001 seconds
  read_data CPU = 0.029 seconds
region 		inside block INF INF INF INF -50.5 50.5
region 		left block  INF INF INF INF INF -50.5
region 		right block  INF INF INF INF 50.5 INF
region		stopper block INF INF INF INF INF -49.5

group		driver id 1
1 atoms in group driver
group 		protein molecule 1	#molecule number of protein
161 atoms in group protein

velocity protein create 298.15 3476544

velocity	driver set 0 0 0.05
neighbor	1.1 bin
neigh_modify	delay 5

timestep	3

thermo_style	multi
thermo		50000

#minimize 	1.0e-4 1.0e-6 100 1000
fix		1 protein nvt temp 298.15 298.15 $(100.0*dt)
fix		1 protein nvt temp 298.15 298.15 300
fix		2 protein langevin 298.15 298.15 14 790080
fix 		3 protein efield 0 0 .1 region inside
fix 		4 protein efield 0 0 .01 region left
fix 		5 protein efield 0 0 .01 region right
fix		6 driver addforce 0 0 10 region stopper

dump 		id all custom 50000 output/output64.lammpstrj id type xu yu zu		#vmd/pymol
run 		80000000
Neighbor list info ...
  update every 1 steps, delay 5 steps, check yes
  max neighbors/atom: 2000, page size: 100000
  master list distance cutoff = 13.1
  ghost atom cutoff = 13.1
  binsize = 6.55, bins = 10 10 59
  1 neighbor lists, perpetual/occasional/extra = 1 0 0
  (1) pair lj/cut/coul/debye, perpetual
      attributes: half, newton on
      pair build: half/bin/newton
      stencil: half/bin/3d
      bin: standard
Per MPI rank memory allocation (min/avg/max) = 9.916 | 9.916 | 9.916 Mbytes
---------------- Step        0 ----- CPU =      0.0000 (sec) ----------------
TotEng   =      -360.4121 KinEng   =       356.1031 Temp     =        28.8285 
PotEng   =      -716.5152 E_bond   =        53.4838 E_angle  =        36.9078 
E_dihed  =         0.0000 E_impro  =         2.3533 E_vdwl   =      -806.1351 
E_coul   =        -3.1250 E_long   =         0.0000 Press    =         6.3019 
---------------- Step    50000 ----- CPU =     21.6623 (sec) ----------------
TotEng   =      -587.4797 KinEng   =       143.8308 Temp     =        11.6439 
PotEng   =      -731.3105 E_bond   =        57.2018 E_angle  =        37.8095 
E_dihed  =         0.0000 E_impro  =         3.0884 E_vdwl   =      -825.5914 
E_coul   =        -3.8188 E_long   =         0.0000 Press    =        -3.9160 
---------------- Step   100000 ----- CPU =     43.4865 (sec) ----------------
TotEng   =      -614.6867 KinEng   =       135.4999 Temp     =        10.9695 
PotEng   =      -750.1866 E_bond   =        51.1664 E_angle  =        35.2234 
E_dihed  =         0.0000 E_impro  =         1.3630 E_vdwl   =      -830.7712 
E_coul   =        -7.1682 E_long   =         0.0000 Press    =         0.0842 
---------------- Step   150000 ----- CPU =     65.3602 (sec) ----------------
TotEng   =      -589.4793 KinEng   =       136.3656 Temp     =        11.0395 
PotEng   =      -725.8449 E_bond   =        60.1934 E_angle  =        46.1947 
E_dihed  =         0.0000 E_impro  =         1.0382 E_vdwl   =      -827.0562 
E_coul   =        -6.2150 E_long   =         0.0000 Press    =        -6.7882 
---------------- Step   200000 ----- CPU =     87.3924 (sec) ----------------
TotEng   =      -632.6232 KinEng   =       127.1542 Temp     =        10.2938 
PotEng   =      -759.7774 E_bond   =        55.5636 E_angle  =        40.5588 
E_dihed  =         0.0000 E_impro  =         2.0678 E_vdwl   =      -850.6656 
E_coul   =        -7.3019 E_long   =         0.0000 Press    =         3.8540 
---------------- Step   250000 ----- CPU =    109.6842 (sec) ----------------
TotEng   =      -637.0002 KinEng   =       146.7865 Temp     =        11.8832 
PotEng   =      -783.7867 E_bond   =        61.5861 E_angle  =        38.1317 
E_dihed  =         0.0000 E_impro  =         2.9635 E_vdwl   =      -876.5022 
E_coul   =        -9.9657 E_long   =         0.0000 Press    =        -3.6521 
---------------- Step   300000 ----- CPU =    132.1573 (sec) ----------------
TotEng   =      -649.7158 KinEng   =       142.5950 Temp     =        11.5438 
PotEng   =      -792.3108 E_bond   =        57.0122 E_angle  =        37.3628 
E_dihed  =         0.0000 E_impro  =         0.7063 E_vdwl   =      -878.1540 
E_coul   =        -9.2381 E_long   =         0.0000 Press    =        -0.6563 
---------------- Step   350000 ----- CPU =    154.5581 (sec) ----------------
TotEng   =      -650.3266 KinEng   =       151.8812 Temp     =        12.2956 
PotEng   =      -802.2077 E_bond   =        50.1586 E_angle  =        32.9461 
E_dihed  =         0.0000 E_impro  =         1.0470 E_vdwl   =      -877.4233 
E_coul   =        -8.9361 E_long   =         0.0000 Press    =       -10.0101 
---------------- Step   400000 ----- CPU =    177.0183 (sec) ----------------
TotEng   =      -653.6547 KinEng   =       140.9401 Temp     =        11.4099 
PotEng   =      -794.5948 E_bond   =        59.7838 E_angle  =        32.3405 
E_dihed  =         0.0000 E_impro  =         0.8427 E_vdwl   =      -877.9797 
E_coul   =        -9.5820 E_long   =         0.0000 Press    =         0.2639 
---------------- Step   450000 ----- CPU =    199.5790 (sec) ----------------
TotEng   =      -676.5171 KinEng   =       132.6146 Temp     =        10.7359 
PotEng   =      -809.1316 E_bond   =        66.1821 E_angle  =        34.8565 
E_dihed  =         0.0000 E_impro  =         0.9910 E_vdwl   =      -902.3811 
E_coul   =        -8.7801 E_long   =         0.0000 Press    =        -1.2079 
---------------- Step   500000 ----- CPU =    222.1481 (sec) ----------------
TotEng   =      -641.5616 KinEng   =       139.9108 Temp     =        11.3265 
PotEng   =      -781.4725 E_bond   =        64.8696 E_angle  =        30.9478 
E_dihed  =         0.0000 E_impro  =         1.4698 E_vdwl   =      -870.9019 
E_coul   =        -7.8578 E_long   =         0.0000 Press    =         2.2975 
---------------- Step   550000 ----- CPU =    244.7115 (sec) ----------------
TotEng   =      -682.9577 KinEng   =       130.4725 Temp     =        10.5625 
PotEng   =      -813.4302 E_bond   =        56.3442 E_angle  =        33.6660 
E_dihed  =         0.0000 E_impro  =         1.2919 E_vdwl   =      -895.7493 
E_coul   =        -8.9829 E_long   =         0.0000 Press    =        -1.1482 
---------------- Step   600000 ----- CPU =    267.2810 (sec) ----------------
TotEng   =      -672.0795 KinEng   =       134.4267 Temp     =        10.8826 
PotEng   =      -806.5062 E_bond   =        51.4378 E_angle  =        36.0478 
E_dihed  =         0.0000 E_impro  =         1.8109 E_vdwl   =      -888.2649 
E_coul   =        -7.5378 E_long   =         0.0000 Press    =         0.3381 
---------------- Step   650000 ----- CPU =    289.7959 (sec) ----------------
TotEng   =      -661.2781 KinEng   =       138.5255 Temp     =        11.2144 
PotEng   =      -799.8037 E_bond   =        61.3995 E_angle  =        42.7730 
E_dihed  =         0.0000 E_impro  =         1.9546 E_vdwl   =      -898.7233 
E_coul   =        -7.2074 E_long   =         0.0000 Press    =         3.3163 
---------------- Step   700000 ----- CPU =    312.3497 (sec) ----------------
TotEng   =      -682.5984 KinEng   =       142.6239 Temp     =        11.5462 
PotEng   =      -825.2222 E_bond   =        59.5023 E_angle  =        41.7849 
E_dihed  =         0.0000 E_impro  =         0.8895 E_vdwl   =      -918.6881 
E_coul   =        -8.7108 E_long   =         0.0000 Press    =        -4.9505 
---------------- Step   750000 ----- CPU =    334.9067 (sec) ----------------
TotEng   =      -664.7742 KinEng   =       140.6056 Temp     =        11.3828 
PotEng   =      -805.3799 E_bond   =        53.8987 E_angle  =        39.8085 
E_dihed  =         0.0000 E_impro  =         1.1529 E_vdwl   =      -891.1377 
E_coul   =        -9.1022 E_long   =         0.0000 Press    =         0.1400 
---------------- Step   800000 ----- CPU =    357.5506 (sec) ----------------
TotEng   =      -668.8453 KinEng   =       136.7700 Temp     =        11.0723 
PotEng   =      -805.6152 E_bond   =        66.0188 E_angle  =        36.8498 
E_dihed  =         0.0000 E_impro  =         0.9044 E_vdwl   =      -901.1460 
E_coul   =        -8.2423 E_long   =         0.0000 Press    =         2.4282 
---------------- Step   850000 ----- CPU =    380.1399 (sec) ----------------
TotEng   =      -667.8017 KinEng   =       151.3262 Temp     =        12.2507 
PotEng   =      -819.1279 E_bond   =        57.3729 E_angle  =        41.4797 
E_dihed  =         0.0000 E_impro  =         1.0652 E_vdwl   =      -909.8796 
E_coul   =        -9.1660 E_long   =         0.0000 Press    =        -2.1554 
---------------- Step   900000 ----- CPU =    402.7614 (sec) ----------------
TotEng   =      -671.6305 KinEng   =       137.7524 Temp     =        11.1518 
PotEng   =      -809.3829 E_bond   =        57.2437 E_angle  =        37.9387 
E_dihed  =         0.0000 E_impro  =         1.4367 E_vdwl   =      -895.9279 
E_coul   =       -10.0741 E_long   =         0.0000 Press    =        -3.2081 
---------------- Step   950000 ----- CPU =    425.4411 (sec) ----------------
TotEng   =      -678.7577 KinEng   =       135.5965 Temp     =        10.9773 
PotEng   =      -814.3543 E_bond   =        67.0075 E_angle  =        44.2903 
E_dihed  =         0.0000 E_impro  =         1.3662 E_vdwl   =      -918.0302 
E_coul   =        -8.9881 E_long   =         0.0000 Press    =        -3.6629 
---------------- Step  1000000 ----- CPU =    448.0417 (sec) ----------------
TotEng   =      -661.3698 KinEng   =       154.5334 Temp     =        12.5103 
PotEng   =      -815.9032 E_bond   =        60.9008 E_angle  =        40.0066 
E_dihed  =         0.0000 E_impro  =         1.8473 E_vdwl   =      -909.7668 
E_coul   =        -8.8910 E_long   =         0.0000 Press    =         1.8064 
---------------- Step  1050000 ----- CPU =    470.6459 (sec) ----------------
TotEng   =      -637.8006 KinEng   =       151.1077 Temp     =        12.2330 
PotEng   =      -788.9083 E_bond   =        79.2398 E_angle  =        36.4613 
E_dihed  =         0.0000 E_impro  =         0.3825 E_vdwl   =      -896.6175 
E_coul   =        -8.3744 E_long   =         0.0000 Press    =        -4.1374 
---------------- Step  1100000 ----- CPU =    493.2193 (sec) ----------------
TotEng   =      -660.7068 KinEng   =       150.5968 Temp     =        12.1916 
PotEng   =      -811.3036 E_bond   =        57.9740 E_angle  =        38.2820 
E_dihed  =         0.0000 E_impro  =         1.1514 E_vdwl   =      -902.9708 
E_coul   =        -5.7402 E_long   =         0.0000 Press    =         2.5457 
---------------- Step  1150000 ----- CPU =    515.7867 (sec) ----------------
TotEng   =      -671.1730 KinEng   =       127.8633 Temp     =        10.3512 
PotEng   =      -799.0363 E_bond   =        52.8592 E_angle  =        40.1524 
E_dihed  =         0.0000 E_impro  =         0.8061 E_vdwl   =      -886.8576 
E_coul   =        -5.9963 E_long   =         0.0000 Press    =        -1.8764 
---------------- Step  1200000 ----- CPU =    538.3436 (sec) ----------------
TotEng   =      -664.9177 KinEng   =       146.2073 Temp     =        11.8363 
PotEng   =      -811.1250 E_bond   =        55.8708 E_angle  =        36.5987 
E_dihed  =         0.0000 E_impro  =         1.0148 E_vdwl   =      -896.4435 
E_coul   =        -8.1658 E_long   =         0.0000 Press    =        -3.7834 
---------------- Step  1250000 ----- CPU =    560.9928 (sec) ----------------
TotEng   =      -644.1158 KinEng   =       147.3421 Temp     =        11.9281 
PotEng   =      -791.4579 E_bond   =        51.5528 E_angle  =        35.0366 
E_dihed  =         0.0000 E_impro  =         1.3156 E_vdwl   =      -873.1446 
E_coul   =        -6.2183 E_long   =         0.0000 Press    =         0.0555 
---------------- Step  1300000 ----- CPU =    583.5878 (sec) ----------------
TotEng   =      -642.5829 KinEng   =       158.3564 Temp     =        12.8198 
PotEng   =      -800.9393 E_bond   =        59.6366 E_angle  =        36.0279 
E_dihed  =         0.0000 E_impro  =         1.9115 E_vdwl   =      -891.8032 
E_coul   =        -6.7121 E_long   =         0.0000 Press    =         7.0456 
---------------- Step  1350000 ----- CPU =    606.1424 (sec) ----------------
TotEng   =      -670.2895 KinEng   =       133.7519 Temp     =        10.8279 
PotEng   =      -804.0414 E_bond   =        66.7573 E_angle  =        39.7952 
E_dihed  =         0.0000 E_impro  =         0.8254 E_vdwl   =      -904.5288 
E_coul   =        -6.8905 E_long   =         0.0000 Press    =         1.4234 
---------------- Step  1400000 ----- CPU =    628.7146 (sec) ----------------
TotEng   =      -656.4493 KinEng   =       131.2072 Temp     =        10.6219 
PotEng   =      -787.6565 E_bond   =        59.0967 E_angle  =        36.7266 
E_dihed  =         0.0000 E_impro  =         1.5254 E_vdwl   =      -880.1779 
E_coul   =        -4.8273 E_long   =         0.0000 Press    =        -0.9262 
---------------- Step  1450000 ----- CPU =    651.2079 (sec) ----------------
TotEng   =      -654.1061 KinEng   =       139.4937 Temp     =        11.2928 
PotEng   =      -793.5998 E_bond   =        50.5029 E_angle  =        41.4114 
E_dihed  =         0.0000 E_impro  =         1.5506 E_vdwl   =      -880.5663 
E_coul   =        -6.4984 E_long   =         0.0000 Press    =        -3.7225 
---------------- Step  1500000 ----- CPU =    673.6692 (sec) ----------------
TotEng   =      -658.5210 KinEng   =       137.1164 Temp     =        11.1003 
PotEng   =      -795.6373 E_bond   =        57.9533 E_angle  =        35.2584 
E_dihed  =         0.0000 E_impro  =         1.7639 E_vdwl   =      -882.5901 
E_coul   =        -8.0229 E_long   =         0.0000 Press    =        -1.0366 
---------------- Step  1550000 ----- CPU =    696.1702 (sec) ----------------
TotEng   =      -645.2160 KinEng   =       150.9694 Temp     =        12.2218 
PotEng   =      -796.1854 E_bond   =        48.9268 E_angle  =        37.5261 
E_dihed  =         0.0000 E_impro  =         0.8773 E_vdwl   =      -876.7219 
E_coul   =        -6.7938 E_long   =         0.0000 Press    =        -2.2184 
---------------- Step  1600000 ----- CPU =    718.6902 (sec) ----------------
TotEng   =      -673.5297 KinEng   =       141.1421 Temp     =        11.4262 
PotEng   =      -814.6718 E_bond   =        50.4406 E_angle  =        34.8395 
E_dihed  =         0.0000 E_impro  =         0.5527 E_vdwl   =      -892.3088 
E_coul   =        -8.1957 E_long   =         0.0000 Press    =        -3.0685 
---------------- Step  1650000 ----- CPU =    741.1572 (sec) ----------------
TotEng   =      -635.7518 KinEng   =       149.3663 Temp     =        12.0920 
PotEng   =      -785.1181 E_bond   =        57.7403 E_angle  =        37.2223 
E_dihed  =         0.0000 E_impro  =         1.8250 E_vdwl   =      -873.6874 
E_coul   =        -8.2183 E_long   =         0.0000 Press    =        -6.0067 
---------------- Step  1700000 ----- CPU =    763.4834 (sec) ----------------
TotEng   =      -652.6645 KinEng   =       147.0685 Temp     =        11.9060 
PotEng   =      -799.7331 E_bond   =        56.7559 E_angle  =        34.7328 
E_dihed  =         0.0000 E_impro  =         2.8639 E_vdwl   =      -887.2036 
E_coul   =        -6.8820 E_long   =         0.0000 Press    =         3.1225 
---------------- Step  1750000 ----- CPU =    785.9815 (sec) ----------------
TotEng   =      -687.3471 KinEng   =       152.3536 Temp     =        12.3339 
PotEng   =      -839.7007 E_bond   =        58.1452 E_angle  =        36.5509 
E_dihed  =         0.0000 E_impro  =         0.6427 E_vdwl   =      -927.5922 
E_coul   =        -7.4472 E_long   =         0.0000 Press    =        -6.2692 
---------------- Step  1800000 ----- CPU =    808.7669 (sec) ----------------
TotEng   =      -684.9825 KinEng   =       144.4285 Temp     =        11.6923 
PotEng   =      -829.4110 E_bond   =        50.5115 E_angle  =        38.7584 
E_dihed  =         0.0000 E_impro  =         1.2981 E_vdwl   =      -911.8191 
E_coul   =        -8.1598 E_long   =         0.0000 Press    =         4.7030 
---------------- Step  1850000 ----- CPU =    831.6017 (sec) ----------------
TotEng   =      -716.4176 KinEng   =       133.6428 Temp     =        10.8191 
PotEng   =      -850.0604 E_bond   =        63.5435 E_angle  =        36.8329 
E_dihed  =         0.0000 E_impro  =         2.1673 E_vdwl   =      -945.2970 
E_coul   =        -7.3072 E_long   =         0.0000 Press    =        -7.3163 
---------------- Step  1900000 ----- CPU =    854.3515 (sec) ----------------
TotEng   =      -686.7654 KinEng   =       138.6882 Temp     =        11.2276 
PotEng   =      -825.4536 E_bond   =        65.8324 E_angle  =        33.1093 
E_dihed  =         0.0000 E_impro  =         0.6515 E_vdwl   =      -917.1892 
E_coul   =        -7.8576 E_long   =         0.0000 Press    =        -0.2755 
---------------- Step  1950000 ----- CPU =    877.0129 (sec) ----------------
TotEng   =      -686.8076 KinEng   =       144.0426 Temp     =        11.6610 
PotEng   =      -830.8503 E_bond   =        60.7404 E_angle  =        38.8913 
E_dihed  =         0.0000 E_impro  =         0.8840 E_vdwl   =      -922.9553 
E_coul   =        -8.4107 E_long   =         0.0000 Press    =        -0.0175 
---------------- Step  2000000 ----- CPU =    899.7477 (sec) ----------------
TotEng   =      -677.3544 KinEng   =       151.1248 Temp     =        12.2344 
PotEng   =      -828.4792 E_bond   =        60.4319 E_angle  =        36.4078 
E_dihed  =         0.0000 E_impro  =         2.5240 E_vdwl   =      -920.7132 
E_coul   =        -7.1296 E_long   =         0.0000 Press    =        -1.5264 
---------------- Step  2050000 ----- CPU =    922.4123 (sec) ----------------
TotEng   =      -671.4275 KinEng   =       145.6576 Temp     =        11.7918 
PotEng   =      -817.0850 E_bond   =        55.7502 E_angle  =        36.0522 
E_dihed  =         0.0000 E_impro  =         1.7802 E_vdwl   =      -903.0149 
E_coul   =        -7.6527 E_long   =         0.0000 Press    =         2.4569 
---------------- Step  2100000 ----- CPU =    945.1062 (sec) ----------------
TotEng   =      -685.3622 KinEng   =       141.5132 Temp     =        11.4563 
PotEng   =      -826.8754 E_bond   =        62.3185 E_angle  =        31.9253 
E_dihed  =         0.0000 E_impro  =         1.5161 E_vdwl   =      -915.6414 
E_coul   =        -6.9940 E_long   =         0.0000 Press    =        -0.4005 
---------------- Step  2150000 ----- CPU =    967.7525 (sec) ----------------
TotEng   =      -699.3909 KinEng   =       136.3317 Temp     =        11.0368 
PotEng   =      -835.7226 E_bond   =        60.1281 E_angle  =        36.6540 
E_dihed  =         0.0000 E_impro  =         1.0750 E_vdwl   =      -925.3103 
E_coul   =        -8.2694 E_long   =         0.0000 Press    =        -5.3023 
---------------- Step  2200000 ----- CPU =    990.4038 (sec) ----------------
TotEng   =      -657.8656 KinEng   =       144.6485 Temp     =        11.7101 
PotEng   =      -802.5140 E_bond   =        68.0360 E_angle  =        41.6222 
E_dihed  =         0.0000 E_impro  =         1.0870 E_vdwl   =      -905.9284 
E_coul   =        -7.3309 E_long   =         0.0000 Press    =        -1.5203 
---------------- Step  2250000 ----- CPU =   1013.1814 (sec) ----------------
TotEng   =      -679.9243 KinEng   =       140.9156 Temp     =        11.4079 
PotEng   =      -820.8400 E_bond   =        67.7824 E_angle  =        36.8744 
E_dihed  =         0.0000 E_impro  =         2.6880 E_vdwl   =      -920.0045 
E_coul   =        -8.1802 E_long   =         0.0000 Press    =        -4.5564 
---------------- Step  2300000 ----- CPU =   1035.8888 (sec) ----------------
TotEng   =      -648.4879 KinEng   =       164.1079 Temp     =        13.2854 
PotEng   =      -812.5958 E_bond   =        61.5355 E_angle  =        37.2344 
E_dihed  =         0.0000 E_impro  =         1.2096 E_vdwl   =      -904.0016 
E_coul   =        -8.5737 E_long   =         0.0000 Press    =        -3.2140 
---------------- Step  2350000 ----- CPU =   1058.6391 (sec) ----------------
TotEng   =      -675.1977 KinEng   =       158.5413 Temp     =        12.8348 
PotEng   =      -833.7389 E_bond   =        71.4246 E_angle  =        32.5749 
E_dihed  =         0.0000 E_impro  =         1.3346 E_vdwl   =      -930.1834 
E_coul   =        -8.8897 E_long   =         0.0000 Press    =        -3.7318 
---------------- Step  2400000 ----- CPU =   1081.3811 (sec) ----------------
TotEng   =      -702.8053 KinEng   =       134.7237 Temp     =        10.9066 
PotEng   =      -837.5291 E_bond   =        65.4794 E_angle  =        35.0059 
E_dihed  =         0.0000 E_impro  =         0.5364 E_vdwl   =      -929.2494 
E_coul   =        -9.3014 E_long   =         0.0000 Press    =        -1.2575 
---------------- Step  2450000 ----- CPU =   1104.1265 (sec) ----------------
TotEng   =      -677.4542 KinEng   =       147.0064 Temp     =        11.9010 
PotEng   =      -824.4606 E_bond   =        54.8119 E_angle  =        39.1446 
E_dihed  =         0.0000 E_impro  =         2.5807 E_vdwl   =      -912.6885 
E_coul   =        -8.3093 E_long   =         0.0000 Press    =         3.6454 
---------------- Step  2500000 ----- CPU =   1126.8482 (sec) ----------------
TotEng   =      -663.1618 KinEng   =       154.2562 Temp     =        12.4879 
PotEng   =      -817.4180 E_bond   =        65.7091 E_angle  =        37.7855 
E_dihed  =         0.0000 E_impro  =         2.5887 E_vdwl   =      -914.3118 
E_coul   =        -9.1895 E_long   =         0.0000 Press    =         4.9672 
---------------- Step  2550000 ----- CPU =   1149.4527 (sec) ----------------
TotEng   =      -690.7626 KinEng   =       135.3780 Temp     =        10.9596 
PotEng   =      -826.1406 E_bond   =        57.0551 E_angle  =        39.1122 
E_dihed  =         0.0000 E_impro  =         1.5522 E_vdwl   =      -915.6713 
E_coul   =        -8.1888 E_long   =         0.0000 Press    =        -1.5231 
---------------- Step  2600000 ----- CPU =   1172.0286 (sec) ----------------
TotEng   =      -678.6153 KinEng   =       120.2841 Temp     =         9.7376 
PotEng   =      -798.8994 E_bond   =        64.9726 E_angle  =        36.5310 
E_dihed  =         0.0000 E_impro  =         1.2375 E_vdwl   =      -894.0631 
E_coul   =        -7.5774 E_long   =         0.0000 Press    =        -2.0066 
---------------- Step  2650000 ----- CPU =   1194.5228 (sec) ----------------
TotEng   =      -663.3308 KinEng   =       142.0839 Temp     =        11.5025 
PotEng   =      -805.4148 E_bond   =        61.8477 E_angle  =        37.9200 
E_dihed  =         0.0000 E_impro  =         0.2990 E_vdwl   =      -896.9635 
E_coul   =        -8.5180 E_long   =         0.0000 Press    =        -6.4538 
---------------- Step  2700000 ----- CPU =   1216.9999 (sec) ----------------
TotEng   =      -700.1609 KinEng   =       127.8888 Temp     =        10.3533 
PotEng   =      -828.0496 E_bond   =        47.6159 E_angle  =        33.1194 
E_dihed  =         0.0000 E_impro  =         0.8681 E_vdwl   =      -902.6640 
E_coul   =        -6.9890 E_long   =         0.0000 Press    =        -3.8514 
---------------- Step  2750000 ----- CPU =   1239.5413 (sec) ----------------
TotEng   =      -684.1493 KinEng   =       138.0996 Temp     =        11.1799 
PotEng   =      -822.2489 E_bond   =        56.1148 E_angle  =        41.1436 
E_dihed  =         0.0000 E_impro  =         2.9894 E_vdwl   =      -918.2180 
E_coul   =        -4.2788 E_long   =         0.0000 Press    =        -4.3729 
---------------- Step  2800000 ----- CPU =   1266.0360 (sec) ----------------
TotEng   =      -721.7826 KinEng   =       146.2836 Temp     =        11.8425 
PotEng   =      -868.0662 E_bond   =        56.9547 E_angle  =        38.3526 
E_dihed  =         0.0000 E_impro  =         1.2060 E_vdwl   =      -957.7054 
E_coul   =        -6.8740 E_long   =         0.0000 Press    =         2.3956 
---------------- Step  2850000 ----- CPU =   1288.8463 (sec) ----------------
TotEng   =      -692.7297 KinEng   =       150.9332 Temp     =        12.2189 
PotEng   =      -843.6629 E_bond   =        48.8170 E_angle  =        38.2128 
E_dihed  =         0.0000 E_impro  =         2.1574 E_vdwl   =      -925.7216 
E_coul   =        -7.1285 E_long   =         0.0000 Press    =         1.9891 
---------------- Step  2900000 ----- CPU =   1311.6615 (sec) ----------------
TotEng   =      -700.7362 KinEng   =       141.9436 Temp     =        11.4911 
PotEng   =      -842.6797 E_bond   =        64.6637 E_angle  =        42.7677 
E_dihed  =         0.0000 E_impro  =         0.7209 E_vdwl   =      -943.4882 
E_coul   =        -7.3438 E_long   =         0.0000 Press    =         2.5814 
---------------- Step  2950000 ----- CPU =   1334.4207 (sec) ----------------
TotEng   =      -709.4435 KinEng   =       129.8595 Temp     =        10.5128 
PotEng   =      -839.3030 E_bond   =        60.6979 E_angle  =        31.7390 
E_dihed  =         0.0000 E_impro  =         1.3940 E_vdwl   =      -927.0178 
E_coul   =        -6.1161 E_long   =         0.0000 Press    =        -1.4682 
---------------- Step  3000000 ----- CPU =   1357.1018 (sec) ----------------
TotEng   =      -677.0194 KinEng   =       148.0755 Temp     =        11.9875 
PotEng   =      -825.0949 E_bond   =        65.1857 E_angle  =        32.5946 
E_dihed  =         0.0000 E_impro  =         0.9615 E_vdwl   =      -916.2408 
E_coul   =        -7.5958 E_long   =         0.0000 Press    =        -0.6301 
---------------- Step  3050000 ----- CPU =   1379.9391 (sec) ----------------
TotEng   =      -719.4349 KinEng   =       138.5340 Temp     =        11.2151 
PotEng   =      -857.9689 E_bond   =        59.5952 E_angle  =        39.3467 
E_dihed  =         0.0000 E_impro  =         0.7625 E_vdwl   =      -949.9612 
E_coul   =        -7.7121 E_long   =         0.0000 Press    =         2.3399 
---------------- Step  3100000 ----- CPU =   1402.7486 (sec) ----------------
TotEng   =      -689.8689 KinEng   =       139.2461 Temp     =        11.2727 
PotEng   =      -829.1150 E_bond   =        60.0747 E_angle  =        36.1881 
E_dihed  =         0.0000 E_impro  =         2.4084 E_vdwl   =      -920.8065 
E_coul   =        -6.9797 E_long   =         0.0000 Press    =        -7.0849 
---------------- Step  3150000 ----- CPU =   1425.5484 (sec) ----------------
TotEng   =      -695.0038 KinEng   =       141.9666 Temp     =        11.4930 
PotEng   =      -836.9704 E_bond   =        63.7255 E_angle  =        33.1900 
E_dihed  =         0.0000 E_impro  =         1.2088 E_vdwl   =      -925.9533 
E_coul   =        -9.1414 E_long   =         0.0000 Press    =        -3.1377 
---------------- Step  3200000 ----- CPU =   1448.3013 (sec) ----------------
TotEng   =      -683.6704 KinEng   =       142.4079 Temp     =        11.5287 
PotEng   =      -826.0783 E_bond   =        58.8513 E_angle  =        40.8601 
E_dihed  =         0.0000 E_impro  =         2.1929 E_vdwl   =      -920.2829 
E_coul   =        -7.6996 E_long   =         0.0000 Press    =        -2.0490 
---------------- Step  3250000 ----- CPU =   1471.0321 (sec) ----------------
TotEng   =      -709.6879 KinEng   =       132.9020 Temp     =        10.7591 
PotEng   =      -842.5899 E_bond   =        54.0576 E_angle  =        38.5425 
E_dihed  =         0.0000 E_impro  =         1.2276 E_vdwl   =      -928.9950 
E_coul   =        -7.4227 E_long   =         0.0000 Press    =         3.5321 
---------------- Step  3300000 ----- CPU =   1493.9234 (sec) ----------------
TotEng   =      -720.1017 KinEng   =       128.7544 Temp     =        10.4234 
PotEng   =      -848.8561 E_bond   =        48.5179 E_angle  =        36.8551 
E_dihed  =         0.0000 E_impro  =         1.7716 E_vdwl   =      -930.6197 
E_coul   =        -5.3810 E_long   =         0.0000 Press    =         5.1359 
---------------- Step  3350000 ----- CPU =   1516.7297 (sec) ----------------
TotEng   =      -700.7549 KinEng   =       133.4815 Temp     =        10.8060 
PotEng   =      -834.2364 E_bond   =        52.5667 E_angle  =        41.4283 
E_dihed  =         0.0000 E_impro  =         2.6386 E_vdwl   =      -924.9503 
E_coul   =        -5.9197 E_long   =         0.0000 Press    =         4.2420 
---------------- Step  3400000 ----- CPU =   1539.6116 (sec) ----------------
TotEng   =      -700.0451 KinEng   =       141.2122 Temp     =        11.4319 
PotEng   =      -841.2573 E_bond   =        57.5075 E_angle  =        41.1627 
E_dihed  =         0.0000 E_impro  =         0.9114 E_vdwl   =      -933.5105 
E_coul   =        -7.3283 E_long   =         0.0000 Press    =        -4.4205 
---------------- Step  3450000 ----- CPU =   1562.3786 (sec) ----------------
TotEng   =      -664.2176 KinEng   =       148.4241 Temp     =        12.0157 
PotEng   =      -812.6417 E_bond   =        65.7060 E_angle  =        37.0036 
E_dihed  =         0.0000 E_impro  =         2.0093 E_vdwl   =      -910.6107 
E_coul   =        -6.7499 E_long   =         0.0000 Press    =        -2.5287 
---------------- Step  3500000 ----- CPU =   1585.1311 (sec) ----------------
TotEng   =      -706.3356 KinEng   =       147.7520 Temp     =        11.9613 
PotEng   =      -854.0876 E_bond   =        58.0317 E_angle  =        38.8258 
E_dihed  =         0.0000 E_impro  =         2.5344 E_vdwl   =      -944.6379 
E_coul   =        -8.8416 E_long   =         0.0000 Press    =        -4.8314 
---------------- Step  3550000 ----- CPU =   1607.8695 (sec) ----------------
TotEng   =      -685.6250 KinEng   =       145.6079 Temp     =        11.7878 
PotEng   =      -831.2329 E_bond   =        66.7631 E_angle  =        43.0373 
E_dihed  =         0.0000 E_impro  =         3.2295 E_vdwl   =      -935.5444 
E_coul   =        -8.7186 E_long   =         0.0000 Press    =        -6.1160 
---------------- Step  3600000 ----- CPU =   1630.6009 (sec) ----------------
TotEng   =      -692.3386 KinEng   =       129.9613 Temp     =        10.5211 
PotEng   =      -822.2999 E_bond   =        57.7287 E_angle  =        38.2558 
E_dihed  =         0.0000 E_impro  =         2.6894 E_vdwl   =      -914.4786 
E_coul   =        -6.4952 E_long   =         0.0000 Press    =         0.3127 
---------------- Step  3650000 ----- CPU =   1653.3477 (sec) ----------------
TotEng   =      -696.8120 KinEng   =       132.9970 Temp     =        10.7668 
PotEng   =      -829.8090 E_bond   =        54.5704 E_angle  =        36.0000 
E_dihed  =         0.0000 E_impro  =         0.8968 E_vdwl   =      -911.3617 
E_coul   =        -9.9145 E_long   =         0.0000 Press    =        -1.9582 
---------------- Step  3700000 ----- CPU =   1676.1381 (sec) ----------------
TotEng   =      -698.4949 KinEng   =       143.8074 Temp     =        11.6420 
PotEng   =      -842.3022 E_bond   =        58.3430 E_angle  =        40.7825 
E_dihed  =         0.0000 E_impro  =         0.9723 E_vdwl   =      -934.5607 
E_coul   =        -7.8393 E_long   =         0.0000 Press    =         5.0790 
---------------- Step  3750000 ----- CPU =   1698.8909 (sec) ----------------
TotEng   =      -688.3732 KinEng   =       138.8936 Temp     =        11.2442 
PotEng   =      -827.2668 E_bond   =        60.1332 E_angle  =        49.1173 
E_dihed  =         0.0000 E_impro  =         1.1560 E_vdwl   =      -929.0121 
E_coul   =        -8.6611 E_long   =         0.0000 Press    =         2.8530 
---------------- Step  3800000 ----- CPU =   1721.5657 (sec) ----------------
TotEng   =      -674.1525 KinEng   =       147.5473 Temp     =        11.9448 
PotEng   =      -821.6998 E_bond   =        61.0541 E_angle  =        41.0375 
E_dihed  =         0.0000 E_impro  =         0.5254 E_vdwl   =      -916.8893 
E_coul   =        -7.4274 E_long   =         0.0000 Press    =        -0.8566 
---------------- Step  3850000 ----- CPU =   1744.2727 (sec) ----------------
TotEng   =      -711.7588 KinEng   =       129.0259 Temp     =        10.4453 
PotEng   =      -840.7847 E_bond   =        52.4750 E_angle  =        36.9658 
E_dihed  =         0.0000 E_impro  =         1.0027 E_vdwl   =      -923.6060 
E_coul   =        -7.6221 E_long   =         0.0000 Press    =        -1.1528 
---------------- Step  3900000 ----- CPU =   1766.9644 (sec) ----------------
TotEng   =      -681.9829 KinEng   =       137.7301 Temp     =        11.1500 
PotEng   =      -819.7131 E_bond   =        53.5591 E_angle  =        44.7349 
E_dihed  =         0.0000 E_impro  =         1.5395 E_vdwl   =      -913.1229 
E_coul   =        -6.4237 E_long   =         0.0000 Press    =        -4.4292 
---------------- Step  3950000 ----- CPU =   1789.7397 (sec) ----------------
TotEng   =      -691.6110 KinEng   =       133.4738 Temp     =        10.8054 
PotEng   =      -825.0848 E_bond   =        67.0386 E_angle  =        38.3145 
E_dihed  =         0.0000 E_impro  =         2.3965 E_vdwl   =      -925.8223 
E_coul   =        -7.0122 E_long   =         0.0000 Press    =         1.2388 
---------------- Step  4000000 ----- CPU =   1812.3450 (sec) ----------------
TotEng   =      -695.2017 KinEng   =       136.7781 Temp     =        11.0729 
PotEng   =      -831.9798 E_bond   =        56.8553 E_angle  =        38.6518 
E_dihed  =         0.0000 E_impro  =         2.9738 E_vdwl   =      -921.4942 
E_coul   =        -8.9665 E_long   =         0.0000 Press    =        -5.4589 
---------------- Step  4050000 ----- CPU =   1834.8173 (sec) ----------------
TotEng   =      -658.1299 KinEng   =       140.6144 Temp     =        11.3835 
PotEng   =      -798.7443 E_bond   =        56.7438 E_angle  =        41.6551 
E_dihed  =         0.0000 E_impro  =         1.9051 E_vdwl   =      -893.1659 
E_coul   =        -5.8823 E_long   =         0.0000 Press    =        -5.1337 
---------------- Step  4100000 ----- CPU =   1857.1129 (sec) ----------------
TotEng   =      -643.6720 KinEng   =       145.8493 Temp     =        11.8073 
PotEng   =      -789.5213 E_bond   =        61.8369 E_angle  =        41.7127 
E_dihed  =         0.0000 E_impro  =         2.5764 E_vdwl   =      -889.8078 
E_coul   =        -5.8395 E_long   =         0.0000 Press    =        -0.3549 
---------------- Step  4150000 ----- CPU =   1879.4203 (sec) ----------------
TotEng   =      -629.5269 KinEng   =       148.5308 Temp     =        12.0244 
PotEng   =      -778.0576 E_bond   =        59.3789 E_angle  =        43.2490 
E_dihed  =         0.0000 E_impro  =         0.8290 E_vdwl   =      -874.9743 
E_coul   =        -6.5402 E_long   =         0.0000 Press    =        -1.7586 
---------------- Step  4200000 ----- CPU =   1901.6767 (sec) ----------------
TotEng   =      -610.7907 KinEng   =       151.3397 Temp     =        12.2518 
PotEng   =      -762.1304 E_bond   =        71.8964 E_angle  =        37.2985 
E_dihed  =         0.0000 E_impro  =         1.1417 E_vdwl   =      -865.2164 
E_coul   =        -7.2505 E_long   =         0.0000 Press    =         4.3623 
---------------- Step  4250000 ----- CPU =   1923.8763 (sec) ----------------
TotEng   =      -622.1187 KinEng   =       152.1019 Temp     =        12.3135 
PotEng   =      -774.2206 E_bond   =        57.8228 E_angle  =        41.6514 
E_dihed  =         0.0000 E_impro  =         0.6191 E_vdwl   =      -868.6564 
E_coul   =        -5.6575 E_long   =         0.0000 Press    =         1.9812 
---------------- Step  4300000 ----- CPU =   1946.0228 (sec) ----------------
TotEng   =      -617.6686 KinEng   =       135.4904 Temp     =        10.9687 
PotEng   =      -753.1590 E_bond   =        60.3863 E_angle  =        38.2012 
E_dihed  =         0.0000 E_impro  =         1.0486 E_vdwl   =      -845.8624 
E_coul   =        -6.9327 E_long   =         0.0000 Press    =        -0.6275 
---------------- Step  4350000 ----- CPU =   1968.1709 (sec) ----------------
TotEng   =      -573.2355 KinEng   =       190.7189 Temp     =        15.4397 
PotEng   =      -763.9544 E_bond   =        60.1225 E_angle  =        37.7732 
E_dihed  =         0.0000 E_impro  =         1.0237 E_vdwl   =      -855.1565 
E_coul   =        -7.7174 E_long   =         0.0000 Press    =        -3.4353 
---------------- Step  4400000 ----- CPU =   1990.2212 (sec) ----------------
TotEng   =      -625.5398 KinEng   =       132.2537 Temp     =        10.7067 
PotEng   =      -757.7935 E_bond   =        63.7592 E_angle  =        41.7652 
E_dihed  =         0.0000 E_impro  =         1.3260 E_vdwl   =      -858.0463 
E_coul   =        -6.5976 E_long   =         0.0000 Press    =         2.3487 
---------------- Step  4450000 ----- CPU =   2012.2710 (sec) ----------------
TotEng   =      -611.4689 KinEng   =       136.7453 Temp     =        11.0703 
PotEng   =      -748.2142 E_bond   =        64.3328 E_angle  =        37.5261 
E_dihed  =         0.0000 E_impro  =         2.2190 E_vdwl   =      -843.1095 
E_coul   =        -9.1826 E_long   =         0.0000 Press    =         5.0127 
---------------- Step  4500000 ----- CPU =   2034.3844 (sec) ----------------
TotEng   =      -614.4734 KinEng   =       135.9170 Temp     =        11.0032 
PotEng   =      -750.3904 E_bond   =        61.5986 E_angle  =        36.8076 
E_dihed  =         0.0000 E_impro  =         1.2204 E_vdwl   =      -841.5179 
E_coul   =        -8.4992 E_long   =         0.0000 Press    =        -1.3636 
---------------- Step  4550000 ----- CPU =   2056.4081 (sec) ----------------
TotEng   =      -612.1948 KinEng   =       133.3776 Temp     =        10.7976 
PotEng   =      -745.5724 E_bond   =        61.8092 E_angle  =        29.7974 
E_dihed  =         0.0000 E_impro  =         2.7524 E_vdwl   =      -832.7083 
E_coul   =        -7.2232 E_long   =         0.0000 Press    =        -0.9269 
---------------- Step  4600000 ----- CPU =   2078.4483 (sec) ----------------
TotEng   =      -583.8664 KinEng   =       148.5383 Temp     =        12.0250 
PotEng   =      -732.4047 E_bond   =        56.9194 E_angle  =        30.0699 
E_dihed  =         0.0000 E_impro  =         0.8851 E_vdwl   =      -813.8056 
E_coul   =        -6.4735 E_long   =         0.0000 Press    =        -4.4815 
---------------- Step  4650000 ----- CPU =   2100.2992 (sec) ----------------
TotEng   =      -554.5736 KinEng   =       156.0049 Temp     =        12.6294 
PotEng   =      -710.5785 E_bond   =        71.7911 E_angle  =        36.3077 
E_dihed  =         0.0000 E_impro  =         1.0135 E_vdwl   =      -814.1095 
E_coul   =        -5.5814 E_long   =         0.0000 Press    =         6.5601 
---------------- Step  4700000 ----- CPU =   2122.1346 (sec) ----------------
TotEng   =      -555.9020 KinEng   =       139.8741 Temp     =        11.3236 
PotEng   =      -695.7761 E_bond   =        66.4385 E_angle  =        38.5828 
E_dihed  =         0.0000 E_impro  =         1.3916 E_vdwl   =      -794.2897 
E_coul   =        -7.8993 E_long   =         0.0000 Press    =        -3.0935 
---------------- Step  4750000 ----- CPU =   2143.9091 (sec) ----------------
TotEng   =      -543.6756 KinEng   =       144.3985 Temp     =        11.6898 
PotEng   =      -688.0741 E_bond   =        84.9478 E_angle  =        28.6416 
E_dihed  =         0.0000 E_impro  =         0.5055 E_vdwl   =      -796.8056 
E_coul   =        -5.3634 E_long   =         0.0000 Press    =        -3.4205 
---------------- Step  4800000 ----- CPU =   2165.6147 (sec) ----------------
TotEng   =      -515.3996 KinEng   =       157.0624 Temp     =        12.7151 
PotEng   =      -672.4621 E_bond   =        89.1051 E_angle  =        37.1501 
E_dihed  =         0.0000 E_impro  =         3.1396 E_vdwl   =      -795.4658 
E_coul   =        -6.3911 E_long   =         0.0000 Press    =        -6.2795 
---------------- Step  4850000 ----- CPU =   2187.2586 (sec) ----------------
TotEng   =      -519.4700 KinEng   =       147.3200 Temp     =        11.9263 
PotEng   =      -666.7899 E_bond   =        92.2654 E_angle  =        32.6367 
E_dihed  =         0.0000 E_impro  =         1.1852 E_vdwl   =      -785.9691 
E_coul   =        -6.9082 E_long   =         0.0000 Press    =        -5.6648 
---------------- Step  4900000 ----- CPU =   2208.9721 (sec) ----------------
TotEng   =      -517.6542 KinEng   =       145.7884 Temp     =        11.8024 
PotEng   =      -663.4426 E_bond   =        90.5700 E_angle  =        33.8942 
E_dihed  =         0.0000 E_impro  =         0.9068 E_vdwl   =      -782.2657 
E_coul   =        -6.5478 E_long   =         0.0000 Press    =        -5.7127 
---------------- Step  4950000 ----- CPU =   2230.6139 (sec) ----------------
TotEng   =      -538.7494 KinEng   =       131.1531 Temp     =        10.6176 
PotEng   =      -669.9025 E_bond   =        97.9569 E_angle  =        33.8131 
E_dihed  =         0.0000 E_impro  =         1.5257 E_vdwl   =      -797.0991 
E_coul   =        -6.0991 E_long   =         0.0000 Press    =        -6.5215 
---------------- Step  5000000 ----- CPU =   2252.3000 (sec) ----------------
TotEng   =      -540.2571 KinEng   =       128.4013 Temp     =        10.3948 
PotEng   =      -668.6584 E_bond   =        85.9157 E_angle  =        34.9607 
E_dihed  =         0.0000 E_impro  =         2.5080 E_vdwl   =      -784.5115 
E_coul   =        -7.5313 E_long   =         0.0000 Press    =        -4.7595 
---------------- Step  5050000 ----- CPU =   2274.0220 (sec) ----------------
TotEng   =      -529.7484 KinEng   =       151.6598 Temp     =        12.2777 
PotEng   =      -681.4081 E_bond   =        89.1282 E_angle  =        31.7098 
E_dihed  =         0.0000 E_impro  =         3.5061 E_vdwl   =      -798.1444 
E_coul   =        -7.6079 E_long   =         0.0000 Press    =         0.9447 
---------------- Step  5100000 ----- CPU =   2295.8166 (sec) ----------------
TotEng   =      -523.3161 KinEng   =       130.1801 Temp     =        10.5388 
PotEng   =      -653.4963 E_bond   =        92.6001 E_angle  =        32.0661 
E_dihed  =         0.0000 E_impro  =         1.3199 E_vdwl   =      -771.5496 
E_coul   =        -7.9327 E_long   =         0.0000 Press    =        -9.5329 
---------------- Step  5150000 ----- CPU =   2317.5211 (sec) ----------------
TotEng   =      -506.4756 KinEng   =       142.3809 Temp     =        11.5265 
PotEng   =      -648.8565 E_bond   =       100.6350 E_angle  =        38.1217 
E_dihed  =         0.0000 E_impro  =         0.7836 E_vdwl   =      -779.6919 
E_coul   =        -8.7049 E_long   =         0.0000 Press    =        -5.6262 
---------------- Step  5200000 ----- CPU =   2339.1522 (sec) ----------------
TotEng   =      -500.6887 KinEng   =       148.7620 Temp     =        12.0431 
PotEng   =      -649.4507 E_bond   =        98.0778 E_angle  =        34.9963 
E_dihed  =         0.0000 E_impro  =         1.4474 E_vdwl   =      -775.1587 
E_coul   =        -8.8134 E_long   =         0.0000 Press    =        -4.9188 
---------------- Step  5250000 ----- CPU =   2360.7666 (sec) ----------------
TotEng   =      -513.1957 KinEng   =       142.7997 Temp     =        11.5604 
PotEng   =      -655.9953 E_bond   =        96.9444 E_angle  =        31.6460 
E_dihed  =         0.0000 E_impro  =         3.6051 E_vdwl   =      -780.7916 
E_coul   =        -7.3991 E_long   =         0.0000 Press    =         0.0157 
---------------- Step  5300000 ----- CPU =   2382.2300 (sec) ----------------
TotEng   =      -431.7538 KinEng   =       210.4067 Temp     =        17.0336 
PotEng   =      -642.1605 E_bond   =       104.6763 E_angle  =        33.6126 
E_dihed  =         0.0000 E_impro  =         1.2136 E_vdwl   =      -773.5524 
E_coul   =        -8.1106 E_long   =         0.0000 Press    =        -4.8169 
---------------- Step  5350000 ----- CPU =   2403.6291 (sec) ----------------
TotEng   =      -501.8783 KinEng   =       131.7458 Temp     =        10.6655 
PotEng   =      -633.6240 E_bond   =        92.3115 E_angle  =        31.9112 
E_dihed  =         0.0000 E_impro  =         1.6673 E_vdwl   =      -751.2723 
E_coul   =        -8.2416 E_long   =         0.0000 Press    =        -6.4942 
---------------- Step  5400000 ----- CPU =   2425.1194 (sec) ----------------
TotEng   =      -487.0755 KinEng   =       135.2651 Temp     =        10.9504 
PotEng   =      -622.3407 E_bond   =       113.1685 E_angle  =        27.6483 
E_dihed  =         0.0000 E_impro  =         2.4227 E_vdwl   =      -758.9907 
E_coul   =        -6.5894 E_long   =         0.0000 Press    =        -5.6443 
---------------- Step  5450000 ----- CPU =   2446.5835 (sec) ----------------
TotEng   =      -485.1336 KinEng   =       152.7724 Temp     =        12.3678 
PotEng   =      -637.9060 E_bond   =       105.6318 E_angle  =        33.8630 
E_dihed  =         0.0000 E_impro  =         1.7635 E_vdwl   =      -773.8713 
E_coul   =        -5.2930 E_long   =         0.0000 Press    =        -7.9299 
---------------- Step  5500000 ----- CPU =   2467.9643 (sec) ----------------
TotEng   =      -482.0416 KinEng   =       151.1397 Temp     =        12.2356 
PotEng   =      -633.1813 E_bond   =        91.6316 E_angle  =        33.9668 
E_dihed  =         0.0000 E_impro  =         0.5180 E_vdwl   =      -753.1096 
E_coul   =        -6.1880 E_long   =         0.0000 Press    =        -4.3577 
---------------- Step  5550000 ----- CPU =   2489.3398 (sec) ----------------
TotEng   =      -488.5204 KinEng   =       142.1659 Temp     =        11.5091 
PotEng   =      -630.6863 E_bond   =        92.5348 E_angle  =        29.9001 
E_dihed  =         0.0000 E_impro  =         2.3153 E_vdwl   =      -749.5621 
E_coul   =        -5.8743 E_long   =         0.0000 Press    =        -6.5072 
---------------- Step  5600000 ----- CPU =   2510.6704 (sec) ----------------
TotEng   =      -460.8716 KinEng   =       142.3981 Temp     =        11.5279 
PotEng   =      -603.2697 E_bond   =        95.8584 E_angle  =        40.4759 
E_dihed  =         0.0000 E_impro  =         1.2342 E_vdwl   =      -735.3949 
E_coul   =        -5.4432 E_long   =         0.0000 Press    =        -6.3177 
---------------- Step  5650000 ----- CPU =   2532.0814 (sec) ----------------
TotEng   =      -497.6776 KinEng   =       125.3497 Temp     =        10.1477 
PotEng   =      -623.0273 E_bond   =        98.4821 E_angle  =        45.7346 
E_dihed  =         0.0000 E_impro  =         1.2360 E_vdwl   =      -763.0737 
E_coul   =        -5.4062 E_long   =         0.0000 Press    =        -6.4005 
---------------- Step  5700000 ----- CPU =   2553.4434 (sec) ----------------
TotEng   =      -482.6632 KinEng   =       134.2745 Temp     =        10.8702 
PotEng   =      -616.9377 E_bond   =       104.1017 E_angle  =        36.2918 
E_dihed  =         0.0000 E_impro  =         2.0854 E_vdwl   =      -751.9223 
E_coul   =        -7.4942 E_long   =         0.0000 Press    =        -5.7712 
---------------- Step  5750000 ----- CPU =   2574.8505 (sec) ----------------
TotEng   =      -494.0435 KinEng   =       137.5829 Temp     =        11.1381 
PotEng   =      -631.6264 E_bond   =       108.4998 E_angle  =        37.2587 
E_dihed  =         0.0000 E_impro  =         0.6110 E_vdwl   =      -770.3473 
E_coul   =        -7.6486 E_long   =         0.0000 Press    =        -8.7196 
---------------- Step  5800000 ----- CPU =   2596.2773 (sec) ----------------
TotEng   =      -486.2105 KinEng   =       135.1374 Temp     =        10.9401 
PotEng   =      -621.3479 E_bond   =       119.4722 E_angle  =        33.1670 
E_dihed  =         0.0000 E_impro  =         1.4057 E_vdwl   =      -768.4214 
E_coul   =        -6.9714 E_long   =         0.0000 Press    =        -8.1250 
---------------- Step  5850000 ----- CPU =   2617.6647 (sec) ----------------
TotEng   =      -473.4927 KinEng   =       146.0347 Temp     =        11.8223 
PotEng   =      -619.5274 E_bond   =        99.6807 E_angle  =        36.7094 
E_dihed  =         0.0000 E_impro  =         1.3755 E_vdwl   =      -750.9137 
E_coul   =        -6.3793 E_long   =         0.0000 Press    =        -4.4187 
---------------- Step  5900000 ----- CPU =   2639.0163 (sec) ----------------
TotEng   =      -447.8121 KinEng   =       152.3791 Temp     =        12.3359 
PotEng   =      -600.1912 E_bond   =       110.5911 E_angle  =        38.2109 
E_dihed  =         0.0000 E_impro  =         0.9477 E_vdwl   =      -745.0325 
E_coul   =        -4.9084 E_long   =         0.0000 Press    =       -11.7763 
---------------- Step  5950000 ----- CPU =   2660.2428 (sec) ----------------
TotEng   =      -469.5288 KinEng   =       147.8070 Temp     =        11.9658 
PotEng   =      -617.3359 E_bond   =       105.0771 E_angle  =        36.6965 
E_dihed  =         0.0000 E_impro  =         0.5225 E_vdwl   =      -751.7717 
E_coul   =        -7.8603 E_long   =         0.0000 Press    =        -9.4482 
---------------- Step  6000000 ----- CPU =   2681.4523 (sec) ----------------
TotEng   =      -475.3958 KinEng   =       133.5642 Temp     =        10.8127 
PotEng   =      -608.9600 E_bond   =       103.5201 E_angle  =        33.9380 
E_dihed  =         0.0000 E_impro  =         1.8228 E_vdwl   =      -740.9917 
E_coul   =        -7.2492 E_long   =         0.0000 Press    =        -7.3577 
---------------- Step  6050000 ----- CPU =   2702.5448 (sec) ----------------
TotEng   =      -459.1068 KinEng   =       135.3993 Temp     =        10.9613 
PotEng   =      -594.5062 E_bond   =       104.6583 E_angle  =        36.9512 
E_dihed  =         0.0000 E_impro  =         1.2554 E_vdwl   =      -730.9851 
E_coul   =        -6.3860 E_long   =         0.0000 Press    =        -9.4843 
---------------- Step  6100000 ----- CPU =   2723.6774 (sec) ----------------
TotEng   =      -443.5712 KinEng   =       153.8280 Temp     =        12.4532 
PotEng   =      -597.3992 E_bond   =       111.4069 E_angle  =        40.7254 
E_dihed  =         0.0000 E_impro  =         1.9126 E_vdwl   =      -744.7632 
E_coul   =        -6.6809 E_long   =         0.0000 Press    =        -5.5060 
---------------- Step  6150000 ----- CPU =   2744.7835 (sec) ----------------
TotEng   =      -430.2940 KinEng   =       132.0391 Temp     =        10.6893 
PotEng   =      -562.3331 E_bond   =       110.1950 E_angle  =        42.8334 
E_dihed  =         0.0000 E_impro  =         0.6004 E_vdwl   =      -711.6917 
E_coul   =        -4.2702 E_long   =         0.0000 Press    =        -7.1060 
---------------- Step  6200000 ----- CPU =   2765.7042 (sec) ----------------
TotEng   =      -402.9090 KinEng   =       136.9654 Temp     =        11.0881 
PotEng   =      -539.8744 E_bond   =       119.0428 E_angle  =        48.9925 
E_dihed  =         0.0000 E_impro  =         1.2346 E_vdwl   =      -705.1878 
E_coul   =        -3.9565 E_long   =         0.0000 Press    =        -8.8741 
---------------- Step  6250000 ----- CPU =   2786.5649 (sec) ----------------
TotEng   =      -408.5334 KinEng   =       147.9845 Temp     =        11.9802 
PotEng   =      -556.5180 E_bond   =       128.4637 E_angle  =        35.7066 
E_dihed  =         0.0000 E_impro  =         1.0853 E_vdwl   =      -721.8512 
E_coul   =         0.0776 E_long   =         0.0000 Press    =        -3.6852 
---------------- Step  6300000 ----- CPU =   2807.5355 (sec) ----------------
TotEng   =      -389.9576 KinEng   =       139.7157 Temp     =        11.3107 
PotEng   =      -529.6732 E_bond   =       136.9886 E_angle  =        40.9004 
E_dihed  =         0.0000 E_impro  =         2.1215 E_vdwl   =      -710.1549 
E_coul   =         0.4711 E_long   =         0.0000 Press    =        -7.6335 
---------------- Step  6350000 ----- CPU =   2828.4296 (sec) ----------------
TotEng   =      -393.6073 KinEng   =       145.6707 Temp     =        11.7928 
PotEng   =      -539.2780 E_bond   =       130.9459 E_angle  =        39.3945 
E_dihed  =         0.0000 E_impro  =         1.0154 E_vdwl   =      -710.8022 
E_coul   =         0.1683 E_long   =         0.0000 Press    =        -5.3156 
---------------- Step  6400000 ----- CPU =   2849.3827 (sec) ----------------
TotEng   =      -422.3218 KinEng   =       140.2174 Temp     =        11.3514 
PotEng   =      -562.5392 E_bond   =       120.3160 E_angle  =        34.0009 
E_dihed  =         0.0000 E_impro  =         0.4625 E_vdwl   =      -713.1598 
E_coul   =        -4.1588 E_long   =         0.0000 Press    =        -8.4828 
---------------- Step  6450000 ----- CPU =   2870.4180 (sec) ----------------
TotEng   =      -406.5986 KinEng   =       152.3003 Temp     =        12.3295 
PotEng   =      -558.8989 E_bond   =       131.9095 E_angle  =        36.6152 
E_dihed  =         0.0000 E_impro  =         0.9962 E_vdwl   =      -726.8480 
E_coul   =        -1.5718 E_long   =         0.0000 Press    =        -8.0748 
---------------- Step  6500000 ----- CPU =   2891.6178 (sec) ----------------
TotEng   =      -397.2166 KinEng   =       137.5240 Temp     =        11.1333 
PotEng   =      -534.7406 E_bond   =       141.4195 E_angle  =        36.9737 
E_dihed  =         0.0000 E_impro  =         0.4497 E_vdwl   =      -711.6526 
E_coul   =        -1.9308 E_long   =         0.0000 Press    =       -13.3957 
---------------- Step  6550000 ----- CPU =   2912.7064 (sec) ----------------
TotEng   =      -412.6138 KinEng   =       138.1895 Temp     =        11.1872 
PotEng   =      -550.8033 E_bond   =       129.8937 E_angle  =        38.5237 
E_dihed  =         0.0000 E_impro  =         2.8276 E_vdwl   =      -717.2881 
E_coul   =        -4.7602 E_long   =         0.0000 Press    =        -8.7727 
---------------- Step  6600000 ----- CPU =   2933.8254 (sec) ----------------
TotEng   =      -403.3326 KinEng   =       156.8287 Temp     =        12.6961 
PotEng   =      -560.1612 E_bond   =       137.3917 E_angle  =        33.9049 
E_dihed  =         0.0000 E_impro  =         1.2536 E_vdwl   =      -729.7882 
E_coul   =        -2.9233 E_long   =         0.0000 Press    =       -10.4255 
---------------- Step  6650000 ----- CPU =   2954.9363 (sec) ----------------
TotEng   =      -381.6293 KinEng   =       140.0813 Temp     =        11.3403 
PotEng   =      -521.7106 E_bond   =       149.3994 E_angle  =        40.7547 
E_dihed  =         0.0000 E_impro  =         0.9433 E_vdwl   =      -710.8972 
E_coul   =        -1.9109 E_long   =         0.0000 Press    =       -12.4201 
---------------- Step  6700000 ----- CPU =   2976.0631 (sec) ----------------
TotEng   =      -390.8259 KinEng   =       137.4073 Temp     =        11.1239 
PotEng   =      -528.2332 E_bond   =       154.0426 E_angle  =        33.1353 
E_dihed  =         0.0000 E_impro  =         1.2974 E_vdwl   =      -713.8478 
E_coul   =        -2.8607 E_long   =         0.0000 Press    =       -14.4002 
---------------- Step  6750000 ----- CPU =   2997.1350 (sec) ----------------
TotEng   =      -343.9835 KinEng   =       151.6505 Temp     =        12.2769 
PotEng   =      -495.6340 E_bond   =       162.2955 E_angle  =        38.7338 
E_dihed  =         0.0000 E_impro  =         1.8395 E_vdwl   =      -695.4570 
E_coul   =        -3.0459 E_long   =         0.0000 Press    =       -10.6234 
---------------- Step  6800000 ----- CPU =   3018.2768 (sec) ----------------
TotEng   =      -363.5777 KinEng   =       147.7259 Temp     =        11.9592 
PotEng   =      -511.3036 E_bond   =       136.8876 E_angle  =        39.9954 
E_dihed  =         0.0000 E_impro  =         2.8267 E_vdwl   =      -688.6528 
E_coul   =        -2.3605 E_long   =         0.0000 Press    =        -6.4106 
---------------- Step  6850000 ----- CPU =   3039.5027 (sec) ----------------
TotEng   =      -353.4033 KinEng   =       139.6422 Temp     =        11.3048 
PotEng   =      -493.0455 E_bond   =       157.3314 E_angle  =        32.5760 
E_dihed  =         0.0000 E_impro  =         2.5627 E_vdwl   =      -682.7456 
E_coul   =        -2.7700 E_long   =         0.0000 Press    =       -10.8168 
---------------- Step  6900000 ----- CPU =   3060.7991 (sec) ----------------
TotEng   =      -347.1737 KinEng   =       168.5344 Temp     =        13.6438 
PotEng   =      -515.7081 E_bond   =       142.9911 E_angle  =        37.6158 
E_dihed  =         0.0000 E_impro  =         2.8508 E_vdwl   =      -696.7974 
E_coul   =        -2.3686 E_long   =         0.0000 Press    =       -12.9693 
---------------- Step  6950000 ----- CPU =   3081.9355 (sec) ----------------
TotEng   =      -358.0328 KinEng   =       137.1629 Temp     =        11.1041 
PotEng   =      -495.1957 E_bond   =       153.9569 E_angle  =        39.7260 
E_dihed  =         0.0000 E_impro  =         0.7100 E_vdwl   =      -688.1904 
E_coul   =        -1.3983 E_long   =         0.0000 Press    =        -7.9592 
---------------- Step  7000000 ----- CPU =   3103.3085 (sec) ----------------
TotEng   =      -355.6818 KinEng   =       154.5390 Temp     =        12.5108 
PotEng   =      -510.2207 E_bond   =       137.4244 E_angle  =        37.2526 
E_dihed  =         0.0000 E_impro  =         1.3324 E_vdwl   =      -686.4739 
E_coul   =         0.2437 E_long   =         0.0000 Press    =        -3.6121 
---------------- Step  7050000 ----- CPU =   3124.7014 (sec) ----------------
TotEng   =      -395.1836 KinEng   =       127.8645 Temp     =        10.3513 
PotEng   =      -523.0481 E_bond   =       137.2342 E_angle  =        40.8676 
E_dihed  =         0.0000 E_impro  =         1.2864 E_vdwl   =      -699.3839 
E_coul   =        -3.0524 E_long   =         0.0000 Press    =        -4.3505 
---------------- Step  7100000 ----- CPU =   3146.0950 (sec) ----------------
TotEng   =      -358.3979 KinEng   =       145.6246 Temp     =        11.7891 
PotEng   =      -504.0225 E_bond   =       135.1109 E_angle  =        49.7380 
E_dihed  =         0.0000 E_impro  =         3.6221 E_vdwl   =      -693.8761 
E_coul   =         1.3826 E_long   =         0.0000 Press    =        -8.3336 
---------------- Step  7150000 ----- CPU =   3167.3805 (sec) ----------------
TotEng   =      -372.8343 KinEng   =       127.1365 Temp     =        10.2924 
PotEng   =      -499.9707 E_bond   =       159.8657 E_angle  =        42.7997 
E_dihed  =         0.0000 E_impro  =         1.2092 E_vdwl   =      -704.8602 
E_coul   =         1.0149 E_long   =         0.0000 Press    =        -3.6272 
---------------- Step  7200000 ----- CPU =   3188.7395 (sec) ----------------
TotEng   =      -391.8021 KinEng   =       137.7316 Temp     =        11.1501 
PotEng   =      -529.5338 E_bond   =       138.7024 E_angle  =        38.9616 
E_dihed  =         0.0000 E_impro  =         2.4310 E_vdwl   =      -711.6491 
E_coul   =         2.0202 E_long   =         0.0000 Press    =        -7.4925 
---------------- Step  7250000 ----- CPU =   3210.0370 (sec) ----------------
TotEng   =      -377.0563 KinEng   =       137.0786 Temp     =        11.0973 
PotEng   =      -514.1349 E_bond   =       138.9119 E_angle  =        43.2502 
E_dihed  =         0.0000 E_impro  =         1.1946 E_vdwl   =      -699.1965 
E_coul   =         1.7049 E_long   =         0.0000 Press    =        -8.1234 
---------------- Step  7300000 ----- CPU =   3231.3715 (sec) ----------------
TotEng   =      -383.2813 KinEng   =       138.6964 Temp     =        11.2282 
PotEng   =      -521.9777 E_bond   =       125.5421 E_angle  =        50.4397 
E_dihed  =         0.0000 E_impro  =         2.3867 E_vdwl   =      -702.1312 
E_coul   =         1.7850 E_long   =         0.0000 Press    =        -7.3851 
---------------- Step  7350000 ----- CPU =   3252.8737 (sec) ----------------
TotEng   =      -357.8038 KinEng   =       159.3185 Temp     =        12.8977 
PotEng   =      -517.1223 E_bond   =       140.5915 E_angle  =        46.4259 
E_dihed  =         0.0000 E_impro  =         2.0358 E_vdwl   =      -707.9787 
E_coul   =         1.8032 E_long   =         0.0000 Press    =        -8.8885 
---------------- Step  7400000 ----- CPU =   3274.2896 (sec) ----------------
TotEng   =      -334.9910 KinEng   =       177.5841 Temp     =        14.3764 
PotEng   =      -512.5751 E_bond   =       126.0571 E_angle  =        44.7873 
E_dihed  =         0.0000 E_impro  =         2.5412 E_vdwl   =      -687.6977 
E_coul   =         1.7371 E_long   =         0.0000 Press    =        -8.6605 
---------------- Step  7450000 ----- CPU =   3295.7722 (sec) ----------------
TotEng   =      -369.5284 KinEng   =       147.1737 Temp     =        11.9145 
PotEng   =      -516.7020 E_bond   =       136.3836 E_angle  =        51.3149 
E_dihed  =         0.0000 E_impro  =         2.1852 E_vdwl   =      -710.1016 
E_coul   =         3.5159 E_long   =         0.0000 Press    =        -8.7535 
---------------- Step  7500000 ----- CPU =   3317.0973 (sec) ----------------
TotEng   =      -311.1194 KinEng   =       197.8429 Temp     =        16.0165 
PotEng   =      -508.9624 E_bond   =       129.9545 E_angle  =        49.8540 
E_dihed  =         0.0000 E_impro  =         2.3223 E_vdwl   =      -694.8213 
E_coul   =         3.7281 E_long   =         0.0000 Press    =        -4.0374 
---------------- Step  7550000 ----- CPU =   3338.6446 (sec) ----------------
TotEng   =      -392.5639 KinEng   =       142.1930 Temp     =        11.5113 
PotEng   =      -534.7569 E_bond   =       124.8111 E_angle  =        48.6840 
E_dihed  =         0.0000 E_impro  =         0.2323 E_vdwl   =      -712.7756 
E_coul   =         4.2912 E_long   =         0.0000 Press    =       -10.1028 
---------------- Step  7600000 ----- CPU =   3360.0988 (sec) ----------------
TotEng   =      -349.3833 KinEng   =       144.2500 Temp     =        11.6778 
PotEng   =      -493.6333 E_bond   =       145.2972 E_angle  =        52.4159 
E_dihed  =         0.0000 E_impro  =         1.6610 E_vdwl   =      -698.0153 
E_coul   =         5.0078 E_long   =         0.0000 Press    =        -8.5774 
---------------- Step  7650000 ----- CPU =   3381.5104 (sec) ----------------
TotEng   =      -334.2695 KinEng   =       153.4929 Temp     =        12.4261 
PotEng   =      -487.7624 E_bond   =       141.3182 E_angle  =        49.1880 
E_dihed  =         0.0000 E_impro  =         4.1774 E_vdwl   =      -684.9853 
E_coul   =         2.5393 E_long   =         0.0000 Press    =        -6.2935 
---------------- Step  7700000 ----- CPU =   3402.8632 (sec) ----------------
TotEng   =      -329.7778 KinEng   =       151.1576 Temp     =        12.2370 
PotEng   =      -480.9354 E_bond   =       139.5887 E_angle  =        46.3947 
E_dihed  =         0.0000 E_impro  =         1.9372 E_vdwl   =      -671.9838 
E_coul   =         3.1278 E_long   =         0.0000 Press    =        -9.0927 
---------------- Step  7750000 ----- CPU =   3424.1672 (sec) ----------------
TotEng   =      -351.1884 KinEng   =       135.8077 Temp     =        10.9944 
PotEng   =      -486.9961 E_bond   =       134.4015 E_angle  =        41.6980 
E_dihed  =         0.0000 E_impro  =         1.6163 E_vdwl   =      -667.5219 
E_coul   =         2.8100 E_long   =         0.0000 Press    =        -9.4022 
---------------- Step  7800000 ----- CPU =   3445.4824 (sec) ----------------
TotEng   =      -331.5985 KinEng   =       158.5317 Temp     =        12.8340 
PotEng   =      -490.1302 E_bond   =       124.0375 E_angle  =        56.7620 
E_dihed  =         0.0000 E_impro  =         2.0642 E_vdwl   =      -676.2754 
E_coul   =         3.2815 E_long   =         0.0000 Press    =        -9.2041 
---------------- Step  7850000 ----- CPU =   3466.9664 (sec) ----------------
TotEng   =      -369.7270 KinEng   =       130.4706 Temp     =        10.5623 
PotEng   =      -500.1976 E_bond   =       120.4879 E_angle  =        49.8545 
E_dihed  =         0.0000 E_impro  =         1.9576 E_vdwl   =      -674.6192 
E_coul   =         2.1215 E_long   =         0.0000 Press    =        -9.2360 
---------------- Step  7900000 ----- CPU =   3488.2157 (sec) ----------------
TotEng   =      -100.9144 KinEng   =       395.9772 Temp     =        32.0565 
PotEng   =      -496.8916 E_bond   =       128.4292 E_angle  =        48.4061 
E_dihed  =         0.0000 E_impro  =         3.0989 E_vdwl   =      -680.9459 
E_coul   =         4.1202 E_long   =         0.0000 Press    =         5.5514 
---------------- Step  7950000 ----- CPU =   3509.3964 (sec) ----------------
TotEng   =    -50344.6674 KinEng   =       149.7620 Temp     =        12.1240 
PotEng   =    -50494.4294 E_bond   =       134.1610 E_angle  =        40.6217 
E_dihed  =         0.0000 E_impro  =         1.2917 E_vdwl   =    -50673.8953 
E_coul   =         3.3916 E_long   =         0.0000 Press    =       133.9845 
---------------- Step  8000000 ----- CPU =   3530.3986 (sec) ----------------
TotEng   =      -354.0194 KinEng   =       152.8655 Temp     =        12.3753 
PotEng   =      -506.8849 E_bond   =       117.7145 E_angle  =        36.1524 
E_dihed  =         0.0000 E_impro  =         2.3805 E_vdwl   =      -670.1130 
E_coul   =         6.9807 E_long   =         0.0000 Press    =        -7.7492 
---------------- Step  8050000 ----- CPU =   3551.2425 (sec) ----------------
TotEng   =      -343.1422 KinEng   =       138.6918 Temp     =        11.2279 
PotEng   =      -481.8340 E_bond   =       133.4812 E_angle  =        43.4215 
E_dihed  =         0.0000 E_impro  =         1.7558 E_vdwl   =      -667.5742 
E_coul   =         7.0817 E_long   =         0.0000 Press    =       -12.1374 
---------------- Step  8100000 ----- CPU =   3572.1113 (sec) ----------------
TotEng   =      -352.8164 KinEng   =       144.2088 Temp     =        11.6745 
PotEng   =      -497.0252 E_bond   =       115.1044 E_angle  =        38.4097 
E_dihed  =         0.0000 E_impro  =         0.9914 E_vdwl   =      -659.5599 
E_coul   =         8.0292 E_long   =         0.0000 Press    =       -12.5935 
---------------- Step  8150000 ----- CPU =   3592.9119 (sec) ----------------
TotEng   =      -236.5783 KinEng   =       240.8997 Temp     =        19.5021 
PotEng   =      -477.4780 E_bond   =       124.7215 E_angle  =        37.3143 
E_dihed  =         0.0000 E_impro  =         1.8509 E_vdwl   =      -648.5992 
E_coul   =         7.2345 E_long   =         0.0000 Press    =        -3.6628 
---------------- Step  8200000 ----- CPU =   3613.6243 (sec) ----------------
TotEng   =      -357.5981 KinEng   =       142.2829 Temp     =        11.5186 
PotEng   =      -499.8810 E_bond   =       115.8044 E_angle  =        38.8997 
E_dihed  =         0.0000 E_impro  =         1.3499 E_vdwl   =      -661.8460 
E_coul   =         5.9111 E_long   =         0.0000 Press    =        -5.3502 
---------------- Step  8250000 ----- CPU =   3634.3953 (sec) ----------------
TotEng   =      -362.4182 KinEng   =       133.5312 Temp     =        10.8101 
PotEng   =      -495.9495 E_bond   =       103.1260 E_angle  =        41.6337 
E_dihed  =         0.0000 E_impro  =         1.2553 E_vdwl   =      -647.4544 
E_coul   =         5.4899 E_long   =         0.0000 Press    =       -11.4195 
---------------- Step  8300000 ----- CPU =   3655.0865 (sec) ----------------
TotEng   =      -333.3565 KinEng   =       135.5780 Temp     =        10.9758 
PotEng   =      -468.9345 E_bond   =       107.7419 E_angle  =        44.6891 
E_dihed  =         0.0000 E_impro  =         2.4017 E_vdwl   =      -628.6203 
E_coul   =         4.8532 E_long   =         0.0000 Press    =       -11.4065 
---------------- Step  8350000 ----- CPU =   3675.7518 (sec) ----------------
TotEng   =      -341.3485 KinEng   =       147.5282 Temp     =        11.9432 
PotEng   =      -488.8767 E_bond   =       107.2634 E_angle  =        41.1547 
E_dihed  =         0.0000 E_impro  =         1.2472 E_vdwl   =      -643.5020 
E_coul   =         4.9600 E_long   =         0.0000 Press    =       -10.9622 
---------------- Step  8400000 ----- CPU =   3696.3600 (sec) ----------------
TotEng   =      -277.9340 KinEng   =       188.1437 Temp     =        15.2312 
PotEng   =      -466.0777 E_bond   =       104.4303 E_angle  =        41.5098 
E_dihed  =         0.0000 E_impro  =         1.5173 E_vdwl   =      -617.1137 
E_coul   =         3.5785 E_long   =         0.0000 Press    =        -7.3248 
---------------- Step  8450000 ----- CPU =   3716.9833 (sec) ----------------
TotEng   =      -314.5236 KinEng   =       143.7675 Temp     =        11.6388 
PotEng   =      -458.2911 E_bond   =       117.3871 E_angle  =        42.7994 
E_dihed  =         0.0000 E_impro  =         3.1427 E_vdwl   =      -625.3555 
E_coul   =         3.7353 E_long   =         0.0000 Press    =        -8.9905 
---------------- Step  8500000 ----- CPU =   3737.5134 (sec) ----------------
TotEng   =      -366.3846 KinEng   =       131.0251 Temp     =        10.6072 
PotEng   =      -497.4097 E_bond   =       106.1606 E_angle  =        39.1695 
E_dihed  =         0.0000 E_impro  =         0.5092 E_vdwl   =      -647.9358 
E_coul   =         4.6868 E_long   =         0.0000 Press    =       -17.1245 
---------------- Step  8550000 ----- CPU =   3758.0415 (sec) ----------------
TotEng   =      -340.2913 KinEng   =       131.7055 Temp     =        10.6623 
PotEng   =      -471.9967 E_bond   =       113.2799 E_angle  =        37.7641 
E_dihed  =         0.0000 E_impro  =         1.9846 E_vdwl   =      -628.4548 
E_coul   =         3.4294 E_long   =         0.0000 Press    =       -14.0466 
---------------- Step  8600000 ----- CPU =   3778.4979 (sec) ----------------
TotEng   =      -337.7955 KinEng   =       139.3434 Temp     =        11.2806 
PotEng   =      -477.1390 E_bond   =        96.3728 E_angle  =        40.7746 
E_dihed  =         0.0000 E_impro  =         1.6152 E_vdwl   =      -618.6252 
E_coul   =         2.7236 E_long   =         0.0000 Press    =        -4.6142 
---------------- Step  8650000 ----- CPU =   3798.9483 (sec) ----------------
TotEng   =      -325.1715 KinEng   =       131.8088 Temp     =        10.6706 
PotEng   =      -456.9803 E_bond   =       112.8863 E_angle  =        36.6258 
E_dihed  =         0.0000 E_impro  =         3.6099 E_vdwl   =      -611.8105 
E_coul   =         1.7082 E_long   =         0.0000 Press    =       -13.6802 
---------------- Step  8700000 ----- CPU =   3819.4334 (sec) ----------------
TotEng   =      -331.3563 KinEng   =       141.0018 Temp     =        11.4149 
PotEng   =      -472.3582 E_bond   =       101.5112 E_angle  =        42.2972 
E_dihed  =         0.0000 E_impro  =         1.9662 E_vdwl   =      -621.5543 
E_coul   =         3.4216 E_long   =         0.0000 Press    =        -5.1387 
---------------- Step  8750000 ----- CPU =   3839.9362 (sec) ----------------
TotEng   =      -330.9584 KinEng   =       139.0889 Temp     =        11.2600 
PotEng   =      -470.0473 E_bond   =        91.3650 E_angle  =        39.6827 
E_dihed  =         0.0000 E_impro  =         2.4989 E_vdwl   =      -608.1390 
E_coul   =         4.5451 E_long   =         0.0000 Press    =       -10.1146 
---------------- Step  8800000 ----- CPU =   3860.3113 (sec) ----------------
TotEng   =      -333.3774 KinEng   =       131.9335 Temp     =        10.6807 
PotEng   =      -465.3109 E_bond   =       104.4142 E_angle  =        43.8743 
E_dihed  =         0.0000 E_impro  =         1.3189 E_vdwl   =      -619.3174 
E_coul   =         4.3992 E_long   =         0.0000 Press    =        -3.1665 
---------------- Step  8850000 ----- CPU =   3880.6492 (sec) ----------------
TotEng   =      -323.6838 KinEng   =       137.0908 Temp     =        11.0982 
PotEng   =      -460.7746 E_bond   =        99.1480 E_angle  =        41.5691 
E_dihed  =         0.0000 E_impro  =         1.3344 E_vdwl   =      -605.8273 
E_coul   =         3.0012 E_long   =         0.0000 Press    =        -9.6004 
---------------- Step  8900000 ----- CPU =   3901.0082 (sec) ----------------
TotEng   =      -346.7008 KinEng   =       131.3438 Temp     =        10.6330 
PotEng   =      -478.0446 E_bond   =        96.0613 E_angle  =        35.0478 
E_dihed  =         0.0000 E_impro  =         1.4571 E_vdwl   =      -614.9784 
E_coul   =         4.3676 E_long   =         0.0000 Press    =        -8.7614 
---------------- Step  8950000 ----- CPU =   3921.4086 (sec) ----------------
TotEng   =      -314.0292 KinEng   =       154.1639 Temp     =        12.4804 
PotEng   =      -468.1932 E_bond   =       107.9578 E_angle  =        38.4756 
E_dihed  =         0.0000 E_impro  =         1.4707 E_vdwl   =      -620.2592 
E_coul   =         4.1620 E_long   =         0.0000 Press    =       -10.2266 
---------------- Step  9000000 ----- CPU =   3941.5766 (sec) ----------------
TotEng   =      -281.7148 KinEng   =       140.4970 Temp     =        11.3740 
PotEng   =      -422.2118 E_bond   =       113.6378 E_angle  =        39.6406 
E_dihed  =         0.0000 E_impro  =         1.0095 E_vdwl   =      -764.3604 
E_coul   =        11.9756 E_long   =         0.0000 Press    =       -12.9930 
---------------- Step  9050000 ----- CPU =   3955.4798 (sec) ----------------
TotEng   =      -435.4992 KinEng   =       144.9508 Temp     =        11.7346 
PotEng   =      -580.4500 E_bond   =       101.8258 E_angle  =        42.8590 
E_dihed  =         0.0000 E_impro  =         2.0482 E_vdwl   =      -738.2437 
E_coul   =        11.0607 E_long   =         0.0000 Press    =        -5.1979 
---------------- Step  9100000 ----- CPU =   3977.2654 (sec) ----------------
TotEng   =      -445.6219 KinEng   =       150.5367 Temp     =        12.1868 
PotEng   =      -596.1586 E_bond   =        99.8222 E_angle  =        39.3465 
E_dihed  =         0.0000 E_impro  =         1.0732 E_vdwl   =      -746.2526 
E_coul   =         9.8521 E_long   =         0.0000 Press    =       -13.1035 
---------------- Step  9150000 ----- CPU =   3999.0307 (sec) ----------------
TotEng   =      -470.9240 KinEng   =       144.0007 Temp     =        11.6576 
PotEng   =      -614.9247 E_bond   =        73.8651 E_angle  =        41.3913 
E_dihed  =         0.0000 E_impro  =         1.6253 E_vdwl   =      -745.1415 
E_coul   =        13.3351 E_long   =         0.0000 Press    =        -3.6677 
---------------- Step  9200000 ----- CPU =   4020.7976 (sec) ----------------
TotEng   =      -475.3663 KinEng   =       136.5665 Temp     =        11.0558 
PotEng   =      -611.9328 E_bond   =        95.8507 E_angle  =        36.5212 
E_dihed  =         0.0000 E_impro  =         2.1586 E_vdwl   =      -758.6890 
E_coul   =        12.2256 E_long   =         0.0000 Press    =        -7.1676 
---------------- Step  9250000 ----- CPU =   4042.7484 (sec) ----------------
TotEng   =      -488.6272 KinEng   =       123.2494 Temp     =         9.9777 
PotEng   =      -611.8766 E_bond   =        80.5474 E_angle  =        41.6065 
E_dihed  =         0.0000 E_impro  =         0.8235 E_vdwl   =      -747.6188 
E_coul   =        12.7649 E_long   =         0.0000 Press    =        -8.6364 
---------------- Step  9300000 ----- CPU =   4064.5597 (sec) ----------------
TotEng   =      -471.0599 KinEng   =       140.2973 Temp     =        11.3578 
PotEng   =      -611.3572 E_bond   =        83.5331 E_angle  =        38.7842 
E_dihed  =         0.0000 E_impro  =         0.9219 E_vdwl   =      -748.1372 
E_coul   =        13.5408 E_long   =         0.0000 Press    =        -6.6130 
---------------- Step  9350000 ----- CPU =   4086.4157 (sec) ----------------
TotEng   =      -456.8534 KinEng   =       135.2003 Temp     =        10.9452 
PotEng   =      -592.0537 E_bond   =        90.7287 E_angle  =        42.1877 
E_dihed  =         0.0000 E_impro  =         3.6835 E_vdwl   =      -742.4226 
E_coul   =        13.7690 E_long   =         0.0000 Press    =        -0.5018 
---------------- Step  9400000 ----- CPU =   4108.2115 (sec) ----------------
TotEng   =      -453.7966 KinEng   =       143.4117 Temp     =        11.6100 
PotEng   =      -597.2082 E_bond   =        91.7923 E_angle  =        41.7060 
E_dihed  =         0.0000 E_impro  =         2.9979 E_vdwl   =      -744.4883 
E_coul   =        10.7839 E_long   =         0.0000 Press    =        -6.5418 
---------------- Step  9450000 ----- CPU =   4129.9893 (sec) ----------------
TotEng   =      -457.8700 KinEng   =       147.2615 Temp     =        11.9216 
PotEng   =      -605.1315 E_bond   =        82.4567 E_angle  =        40.6452 
E_dihed  =         0.0000 E_impro  =         1.9275 E_vdwl   =      -738.6467 
E_coul   =         8.4858 E_long   =         0.0000 Press    =        -6.2411 
---------------- Step  9500000 ----- CPU =   4151.8338 (sec) ----------------
TotEng   =      -482.5155 KinEng   =       133.4255 Temp     =        10.8015 
PotEng   =      -615.9410 E_bond   =        79.4793 E_angle  =        38.6716 
E_dihed  =         0.0000 E_impro  =         2.1706 E_vdwl   =      -746.6394 
E_coul   =        10.3770 E_long   =         0.0000 Press    =        -5.6054 
---------------- Step  9550000 ----- CPU =   4173.7507 (sec) ----------------
TotEng   =      -424.6557 KinEng   =       172.0058 Temp     =        13.9248 
PotEng   =      -596.6614 E_bond   =        90.6950 E_angle  =        38.3453 
E_dihed  =         0.0000 E_impro  =         1.6867 E_vdwl   =      -739.2841 
E_coul   =        11.8957 E_long   =         0.0000 Press    =        -5.0627 
---------------- Step  9600000 ----- CPU =   4195.5344 (sec) ----------------
TotEng   =      -469.0591 KinEng   =       148.3890 Temp     =        12.0129 
PotEng   =      -617.4481 E_bond   =        84.5976 E_angle  =        39.7782 
E_dihed  =         0.0000 E_impro  =         2.7137 E_vdwl   =      -756.0769 
E_coul   =        11.5393 E_long   =         0.0000 Press    =        -1.9212 
---------------- Step  9650000 ----- CPU =   4217.3337 (sec) ----------------
TotEng   =      -479.2802 KinEng   =       128.6536 Temp     =        10.4152 
PotEng   =      -607.9339 E_bond   =       104.5405 E_angle  =        42.2542 
E_dihed  =         0.0000 E_impro  =         1.5359 E_vdwl   =      -768.8652 
E_coul   =        12.6007 E_long   =         0.0000 Press    =        -4.9957 
---------------- Step  9700000 ----- CPU =   4239.3146 (sec) ----------------
TotEng   =      -463.5340 KinEng   =       142.6494 Temp     =        11.5482 
PotEng   =      -606.1834 E_bond   =       102.4257 E_angle  =        40.7975 
E_dihed  =         0.0000 E_impro  =         1.4603 E_vdwl   =      -762.1813 
E_coul   =        11.3144 E_long   =         0.0000 Press    =        -9.6014 
---------------- Step  9750000 ----- CPU =   4261.3331 (sec) ----------------
TotEng   =      -498.2275 KinEng   =       126.4496 Temp     =        10.2368 
PotEng   =      -624.6771 E_bond   =        93.9614 E_angle  =        42.4458 
E_dihed  =         0.0000 E_impro  =         1.8652 E_vdwl   =      -775.6791 
E_coul   =        12.7296 E_long   =         0.0000 Press    =        -4.8822 
---------------- Step  9800000 ----- CPU =   4283.3825 (sec) ----------------
TotEng   =      -507.3962 KinEng   =       132.3682 Temp     =        10.7159 
PotEng   =      -639.7645 E_bond   =        74.1654 E_angle  =        44.4258 
[...]
E_coul   =        13.1658 E_long   =         0.0000 Press    =        -8.3577 
---------------- Step 163700000 ----- CPU =   1625.7989 (sec) ----------------
TotEng   =      -530.7774 KinEng   =       142.6316 Temp     =        11.5468 
PotEng   =      -673.4089 E_bond   =        80.6072 E_angle  =        42.7415 
E_dihed  =         0.0000 E_impro  =         1.7546 E_vdwl   =      -811.0770 
E_coul   =        12.5649 E_long   =         0.0000 Press    =        -8.0625 
---------------- Step 163750000 ----- CPU =   1647.9917 (sec) ----------------
TotEng   =      -533.3102 KinEng   =       146.1124 Temp     =        11.8286 
PotEng   =      -679.4225 E_bond   =        78.6398 E_angle  =        36.8605 
E_dihed  =         0.0000 E_impro  =         1.5110 E_vdwl   =      -809.9783 
E_coul   =        13.5445 E_long   =         0.0000 Press    =         2.3902 
---------------- Step 163800000 ----- CPU =   1670.1678 (sec) ----------------
TotEng   =      -543.5235 KinEng   =       137.5840 Temp     =        11.1382 
PotEng   =      -681.1075 E_bond   =        76.8919 E_angle  =        38.6647 
E_dihed  =         0.0000 E_impro  =         2.3582 E_vdwl   =      -813.4509 
E_coul   =        14.4286 E_long   =         0.0000 Press    =        -6.1824 
---------------- Step 163850000 ----- CPU =   1692.3328 (sec) ----------------
TotEng   =      -555.5663 KinEng   =       132.9768 Temp     =        10.7652 
PotEng   =      -688.5431 E_bond   =        72.3508 E_angle  =        43.1506 
E_dihed  =         0.0000 E_impro  =         2.5272 E_vdwl   =      -821.2272 
E_coul   =        14.6555 E_long   =         0.0000 Press    =        -5.6142 
---------------- Step 163900000 ----- CPU =   1714.4204 (sec) ----------------
TotEng   =      -552.3406 KinEng   =       143.5094 Temp     =        11.6179 
PotEng   =      -695.8500 E_bond   =        81.0052 E_angle  =        40.9200 
E_dihed  =         0.0000 E_impro  =         1.3959 E_vdwl   =      -831.9616 
E_coul   =        12.7905 E_long   =         0.0000 Press    =        -4.6939 
---------------- Step 163950000 ----- CPU =   1736.4657 (sec) ----------------
TotEng   =      -542.4725 KinEng   =       138.1710 Temp     =        11.1857 
PotEng   =      -680.6435 E_bond   =        82.8249 E_angle  =        40.0381 
E_dihed  =         0.0000 E_impro  =         1.4140 E_vdwl   =      -816.1898 
E_coul   =        11.2693 E_long   =         0.0000 Press    =        -4.0047 
---------------- Step 164000000 ----- CPU =   1758.3972 (sec) ----------------
TotEng   =      -544.7038 KinEng   =       140.8630 Temp     =        11.4036 
PotEng   =      -685.5668 E_bond   =        81.0073 E_angle  =        40.3224 
E_dihed  =         0.0000 E_impro  =         1.2043 E_vdwl   =      -819.6706 
E_coul   =        11.5697 E_long   =         0.0000 Press    =        -6.4825 
---------------- Step 164050000 ----- CPU =   1780.4216 (sec) ----------------
TotEng   =      -533.9292 KinEng   =       146.0203 Temp     =        11.8211 
PotEng   =      -679.9494 E_bond   =        81.7625 E_angle  =        42.1379 
E_dihed  =         0.0000 E_impro  =         0.9285 E_vdwl   =      -816.3686 
E_coul   =        11.5903 E_long   =         0.0000 Press    =        -8.7996 
---------------- Step 164100000 ----- CPU =   1802.5937 (sec) ----------------
TotEng   =      -552.0997 KinEng   =       143.3993 Temp     =        11.6089 
PotEng   =      -695.4990 E_bond   =        85.9419 E_angle  =        39.5160 
E_dihed  =         0.0000 E_impro  =         0.5997 E_vdwl   =      -835.6336 
E_coul   =        14.0770 E_lonong   =         0.0000 Press    =        -7.5979 
---------------- Step 164150000 ----- CPU =   1784.6074 (sec) ----------------
TotEng   =      -495.9108 KinEng   =       139.7332 Temp     =        11.3122 
PotEng   =      -635.6440 E_bond   =        79.0266 E_angle  =        42.1092 
E_dihed  =         0.0000 E_impro  =         1.6853 E_vdwl   =      -771.3746 
E_coul   =        12.9094 E_long   =         0.0000 Press    =        -7.8562 
---------------- Step 164200000 ----- CPU =   1806.0007 (sec) ----------------
TotEng   =      -491.0613 KinEng   =       121.5349 Temp     =         9.8389 
PotEng   =      -612.5963 E_bond   =        90.3166 E_angle  =        41.6601 
E_dihed  =         0.0000 E_impro  =         1.1051 E_vdwl   =      -758.0694 
E_coul   =        12.3914 E_long   =         0.0000 Press    =        -5.9388 
---------------- Step 164250000 ----- CPU =   1827.4295 (sec) ----------------
TotEng   =      -517.3717 KinEng   =       137.5575 Temp     =        11.1360 
PotEng   =      -654.9291 E_bond   =        74.0170 E_angle  =        33.9639 
E_dihed  =         0.0000 E_impro  =         1.4984 E_vdwl   =      -776.0779 
E_coul   =        11.6695 E_long   =         0.0000 Press    =       -10.9747 
---------------- Step 164300000 ----- CPU =   1848.8571 (sec) ----------------
TotEng   =      -514.3809 KinEng   =       133.3507 Temp     =        10.7955 
PotEng   =      -647.7316 E_bond   =        81.7269 E_angle  =        44.9502 
E_dihed  =         0.0000 E_impro  =         2.4028 E_vdwl   =      -788.9135 
E_coul   =        12.1020 E_long   =         0.0000 Press    =       -12.7826 
---------------- Step 164350000 ----- CPU =   1870.3029 (sec) ----------------
TotEng   =      -495.3771 KinEng   =       156.3495 Temp     =        12.6573 
PotEng   =      -651.7266 E_bond   =        68.9199 E_angle  =        41.2321 
E_dihed  =         0.0000 E_impro  =         1.4997 E_vdwl   =      -775.6011 
E_coul   =        12.2229 E_long   =         0.0000 Press    =        -7.3438 
---------------- Step 164400000 ----- CPU =   1891.7194 (sec) ----------------
TotEng   =      -481.2663 KinEng   =       131.9737 Temp     =        10.6840 
PotEng   =      -613.2400 E_bond   =        82.5295 E_angle  =        37.3255 
E_dihed  =         0.0000 E_impro  =         0.6832 E_vdwl   =      -746.7522 
E_coul   =        12.9740 E_long   =         0.0000 Press    =        -2.1697 
---------------- Step 164450000 ----- CPU =   1913.1238 (sec) ----------------
TotEng   =      -483.0253 KinEng   =       149.6301 Temp     =        12.1134 
PotEng   =      -632.6554 E_bond   =        84.6657 E_angle  =        40.0248 
E_dihed  =         0.0000 E_impro  =         2.2077 E_vdwl   =      -770.8283 
E_coul   =        11.2746 E_long   =         0.0000 Press    =        -7.8236 
---------------- Step 164500000 ----- CPU =   1934.5949 (sec) ----------------
TotEng   =      -506.2840 KinEng   =       153.4907 Temp     =        12.4259 
PotEng   =      -659.7748 E_bond   =        79.9182 E_angle  =        39.3812 
E_dihed  =         0.0000 E_impro  =         1.7881 E_vdwl   =      -793.3633 
E_coul   =        12.5010 E_long   =         0.0000 Press    =        -3.8156 
---------------- Step 164550000 ----- CPU =   1956.1600 (sec) ----------------
TotEng   =      -497.8641 KinEng   =       145.9678 Temp     =        11.8169 
PotEng   =      -643.8318 E_bond   =        87.1293 E_angle  =        36.6867 
E_dihed  =         0.0000 E_impro  =         1.1678 E_vdwl   =      -782.2852 
E_coul   =        13.4696 E_long   =         0.0000 Press    =        -5.2944 
---------------- Step 164600000 ----- CPU =   1977.6011 (sec) ----------------
TotEng   =      -495.4170 KinEng   =       152.8763 Temp     =        12.3762 
PotEng   =      -648.2933 E_bond   =        82.0465 E_angle  =        34.3998 
E_dihed  =         0.0000 E_impro  =         1.3279 E_vdwl   =      -779.0894 
E_coul   =        13.0219 E_long   =         0.0000 Press    =        -7.8280 
---------------- Step 164650000 ----- CPU =   1999.1261 (sec) ----------------
TotEng   =      -460.6419 KinEng   =       144.2552 Temp     =        11.6782 
PotEng   =      -604.8970 E_bond   =        99.4472 E_angle  =        44.1447 
E_dihed  =         0.0000 E_impro  =         1.5578 E_vdwl   =      -763.0931 
E_coul   =        13.0465 E_long   =         0.0000 Press    =        -6.1866 
---------------- Step 164700000 ----- CPU =   2020.6492 (sec) ----------------
TotEng   =      -490.2170 KinEng   =       143.3641 Temp     =        11.6061 
PotEng   =      -633.5811 E_bond   =        90.9038 E_angle  =        38.9578 
E_dihed  =         0.0000 E_impro  =         1.4081 E_vdwl   =      -777.9121 
E_coul   =        13.0613 E_long   =         0.0000 Press    =        -6.5870 
---------------- Step 164750000 ----- CPU =   2042.1334 (sec) ----------------
TotEng   =      -494.5817 KinEng   =       145.7931 Temp     =        11.8027 
PotEng   =      -640.3747 E_bond   =        81.9946 E_angle  =        34.0319 
E_dihed  =         0.0000 E_impro  =         2.2322 E_vdwl   =      -770.9743 
E_coul   =        12.3409 E_long   =         0.0000 Press    =        -2.3073 
---------------- Step 164800000 ----- CPU =   2063.5929 (sec) ----------------
TotEng   =      -507.5260 KinEng   =       137.5730 Temp     =        11.1373 
PotEng   =      -645.0990 E_bond   =        79.9825 E_angle  =        40.5173 
E_dihed  =         0.0000 E_impro  =         2.2679 E_vdwl   =      -779.9175 
E_coul   =        12.0508 E_long   =         0.0000 Press    =        -9.2163 
---------------- Step 164850000 ----- CPU =   2084.9501 (sec) ----------------
TotEng   =      -481.2375 KinEng   =       139.4039 Temp     =        11.2855 
PotEng   =      -620.6413 E_bond   =        93.5671 E_angle  =        37.0237 
E_dihed  =         0.0000 E_impro  =         1.0714 E_vdwl   =      -764.9742 
E_coul   =        12.6707 E_long   =         0.0000 Press    =        -2.3760 
---------------- Step 164900000 ----- CPU =   2106.3456 (sec) ----------------
TotEng   =      -491.0516 KinEng   =       132.3781 Temp     =        10.7167 
PotEng   =      -623.4297 E_bond   =        98.9857 E_angle  =        33.3829 
E_dihed  =         0.0000 E_impro  =         2.0064 E_vdwl   =      -768.9834 
E_coul   =        11.1787 E_long   =         0.0000 Press    =        -5.2895 
---------------- Step 164950000 ----- CPU =   2127.9174 (sec) ----------------
TotEng   =      -502.3072 KinEng   =       156.4229 Temp     =        12.6633 
PotEng   =      -658.7301 E_bond   =        78.3309 E_angle  =        37.2809 
E_dihed  =         0.0000 E_impro  =         3.5175 E_vdwl   =      -788.4197 
E_coul   =        10.5603 E_long   =         0.0000 Press    =        -3.3275 
---------------- Step 165000000 ----- CPU =   2149.3622 (sec) ----------------
TotEng   =      -510.5783 KinEng   =       127.5730 Temp     =        10.3277 
PotEng   =      -638.1512 E_bond   =        85.2018 E_angle  =        36.2758 
E_dihed  =         0.0000 E_impro  =         0.4696 E_vdwl   =      -771.5017 
E_coul   =        11.4032 E_long   =         0.0000 Press    =         1.6353 
---------------- Step 165050000 ----- CPU =   2170.9156 (sec) ----------------
TotEng   =      -507.7516 KinEng   =       147.2434 Temp     =        11.9202 
PotEng   =      -654.9950 E_bond   =        83.3904 E_angle  =        39.1328 
E_dihed  =         0.0000 E_impro  =         1.2763 E_vdwl   =      -790.5818 
E_coul   =        11.7873 E_long   =         0.0000 Press    =        -3.3604 
---------------- Step 165100000 ----- CPU =   2192.4056 (sec) ----------------
TotEng   =      -503.9954 KinEng   =       138.6624 Temp     =        11.2255 
PotEng   =      -642.6578 E_bond   =        92.3775 E_angle  =        43.2020 
E_dihed  =         0.0000 E_impro  =         0.7829 E_vdwl   =      -791.1064 
E_coul   =        12.0863 E_long   =         0.0000 Press    =        -6.1255 
---------------- Step 165150000 ----- CPU =   2213.9076 (sec) ----------------
TotEng   =      -496.2657 KinEng   =       156.9966 Temp     =        12.7097 
PotEng   =      -653.2623 E_bond   =        80.6178 E_angle  =        37.0678 
E_dihed  =         0.0000 E_impro  =         0.7904 E_vdwl   =      -753.1518 
E_coul   =         9.4973 E_long   =         0.0000 Press    =        -6.9835 
---------------- Step 165200000 ----- CPU =   2241.0610 (sec) ----------------
TotEng   =      -487.2129 KinEng   =       129.9368 Temp     =        10.5191 
PotEng   =      -617.1498 E_bond   =        79.8562 E_angle  =        41.8285 
E_dihed  =         0.0000 E_impro  =         3.9869 E_vdwl   =      -752.2218 
E_coul   =         9.4005 E_long   =         0.0000 Press    =        -1.9039 
---------------- Step 165250000 ----- CPU =   2262.5315 (sec) ----------------
TotEng   =      -354.0682 KinEng   =       267.0285 Temp     =        21.6174 
PotEng   =      -621.0968 E_bond   =        87.0437 E_angle  =        40.4211 
E_dihed  =         0.0000 E_impro  =         1.6631 E_vdwl   =      -760.5279 
E_coul   =        10.3033 E_long   =         0.0000 Press    =        -0.3205 
---------------- Step 165300000 ----- CPU =   2283.9204 (sec) ----------------
TotEng   =      -472.9695 KinEng   =       139.1133 Temp     =        11.2620 
PotEng   =      -612.0828 E_bond   =        89.1427 E_angle  =        41.4157 
E_dihed  =         0.0000 E_impro  =         1.7691 E_vdwl   =      -754.9766 
E_coul   =        10.5664 E_long   =         0.0000 Press    =        -5.4204 
---------------- Step 165350000 ----- CPU =   2305.2448 (sec) ----------------
TotEng   =      -469.0043 KinEng   =       144.2234 Temp     =        11.6757 
PotEng   =      -613.2277 E_bond   =        88.6633 E_angle  =        45.5842 
E_dihed  =         0.0000 E_impro  =         1.7140 E_vdwl   =      -758.9152 
E_coul   =         9.7260 E_long   =         0.0000 Press    =        -8.1082 
---------------- Step 165400000 ----- CPU =   2326.6140 (sec) ----------------
TotEng   =      -485.0964 KinEng   =       140.8060 Temp     =        11.3990 
PotEng   =      -625.9024 E_bond   =        79.8359 E_angle  =        40.7054 
E_dihed  =         0.0000 E_impro  =         1.0855 E_vdwl   =      -756.8591 
E_coul   =         9.3300 E_long   =         0.0000 Press    =        -3.7881 
---------------- Step 165450000 ----- CPU =   2347.9751 (sec) ----------------
TotEng   =      -479.1745 KinEng   =       139.8503 Temp     =        11.3216 
PotEng   =      -619.0249 E_bond   =        77.3064 E_angle  =        44.3555 
E_dihed  =         0.0000 E_impro  =         2.3263 E_vdwl   =      -753.7157 
E_coul   =        10.7026 E_long   =         0.0000 Press    =        -3.0797 
---------------- Step 165500000 ----- CPU =   2369.3517 (sec) ----------------
TotEng   =      -471.3291 KinEng   =       143.8866 Temp     =        11.6484 
PotEng   =      -615.2157 E_bond   =        88.7842 E_angle  =        48.6531 
E_dihed  =         0.0000 E_impro  =         1.6806 E_vdwl   =      -764.7236 
E_coul   =        10.3899 E_long   =         0.0000 Press    =        -3.5827 
---------------- Step 165550000 ----- CPU =   2390.7238 (sec) ----------------
TotEng   =      -478.9856 KinEng   =       141.3930 Temp     =        11.4465 
PotEng   =      -620.3787 E_bond   =        85.8037 E_angle  =        44.1810 
E_dihed  =         0.0000 E_impro  =         2.5459 E_vdwl   =      -762.2751 
E_coul   =         9.3658 E_long   =         0.0000 Press    =        -1.9832 
---------------- Step 165600000 ----- CPU =   2412.1027 (sec) ----------------
TotEng   =      -472.2266 KinEng   =       143.7155 Temp     =        11.6346 
PotEng   =      -615.9421 E_bond   =        83.7374 E_angle  =        45.2772 
E_dihed  =         0.0000 E_impro  =         2.2469 E_vdwl   =      -757.6963 
E_coul   =        10.4926 E_long   =         0.0000 Press    =        -5.0255 
---------------- Step 165650000 ----- CPU =   2433.4168 (sec) ----------------
TotEng   =      -474.4298 KinEng   =       140.9977 Temp     =        11.4145 
PotEng   =      -615.4275 E_bond   =        83.8752 E_angle  =        36.5086 
E_dihed  =         0.0000 E_impro  =         1.2836 E_vdwl   =      -745.2904 
E_coul   =         8.1955 E_long   =         0.0000 Press    =        -2.6172 
---------------- Step 165700000 ----- CPU =   2454.7965 (sec) ----------------
TotEng   =      -484.9453 KinEng   =       143.2087 Temp     =        11.5935 
PotEng   =      -628.1540 E_bond   =        79.5800 E_angle  =        42.2790 
E_dihed  =         0.0000 E_impro  =         1.1094 E_vdwl   =      -764.0077 
E_coul   =        12.8853 E_long   =         0.0000 Press    =        -7.3294 
---------------- Step 165750000 ----- CPU =   2476.2172 (sec) ----------------
TotEng   =      -469.7415 KinEng   =       140.2848 Temp     =        11.3568 
PotEng   =      -610.0263 E_bond   =        94.3963 E_angle  =        42.8959 
E_dihed  =         0.0000 E_impro  =         1.9489 E_vdwl   =      -760.9928 
E_coul   =        11.7254 E_long   =         0.0000 Press    =        -0.4640 
---------------- Step 165800000 ----- CPU =   2497.7233 (sec) ----------------
TotEng   =      -468.9950 KinEng   =       154.4843 Temp     =        12.5063 
PotEng   =      -623.4793 E_bond   =        87.1561 E_angle  =        41.1162 
E_dihed  =         0.0000 E_impro  =         1.9243 E_vdwl   =      -764.0602 
E_coul   =        10.3843 E_long   =         0.0000 Press    =         1.5299 
---------------- Step 165850000 ----- CPU =   2519.2882 (sec) ----------------
TotEng   =    -50454.1947 KinEng   =       141.7712 Temp     =        11.4771 
PotEng   =    -50595.9659 E_bond   =        96.2035 E_angle  =        45.3658 
E_dihed  =         0.0000 E_impro  =         2.1385 E_vdwl   =    -50751.6612 
E_coul   =        11.9875 E_long   =         0.0000 Press    =       203.3032 
---------------- Step 165900000 ----- CPU =   2540.7149 (sec) ----------------
TotEng   =      -479.8388 KinEng   =       142.3503 Temp     =        11.5240 
PotEng   =      -622.1891 E_bond   =        91.6783 E_angle  =        43.6798 
E_dihed  =         0.0000 E_impro  =         1.7425 E_vdwl   =      -768.8844 
E_coul   =         9.5947 E_long   =         0.0000 Press    =        -2.0921 
---------------- Step 165950000 ----- CPU =   2562.2047 (sec) ----------------
TotEng   =      -482.6375 KinEng   =       148.7429 Temp     =        12.0415 
PotEng   =      -631.3804 E_bond   =        90.0568 E_angle  =        37.9187 
E_dihed  =         0.0000 E_impro  =         1.8806 E_vdwl   =      -770.5064 
E_coul   =         9.2699 E_long   =         0.0000 Press    =        -2.4178 
---------------- Step 166000000 ----- CPU =   2583.7649 (sec) ----------------
TotEng   =      -500.8634 KinEng   =       132.6569 Temp     =        10.7393 
PotEng   =      -633.5203 E_bond   =        84.2158 E_angle  =        42.0634 
E_dihed  =         0.0000 E_impro  =         0.8642 E_vdwl   =      -769.6971 
E_coul   =         9.0334 E_long   =         0.0000 Press    =        -4.1860 
---------------- Step 166050000 ----- CPU =   2605.1292 (sec) ----------------
TotEng   =      -491.3639 KinEng   =       142.9046 Temp     =        11.5689 
PotEng   =      -634.2685 E_bond   =        79.2748 E_angle  =        38.9017 
E_dihed  =         0.0000 E_impro  =         1.7238 E_vdwl   =      -761.3557 
E_coul   =         7.1869 E_long   =         0.0000 Press    =        -6.7739 
---------------- Step 166100000 ----- CPU =   2626.6380 (sec) ----------------
TotEng   =      -507.7147 KinEng   =       137.9890 Temp     =        11.1710 
PotEng   =      -645.7037 E_bond   =        82.6706 E_angle  =        38.4718 
E_dihed  =         0.0000 E_impro  =         1.8757 E_vdwl   =      -778.6472 
E_coul   =         9.9254 E_long   =         0.0000 Press    =        -3.3387 
---------------- Step 166150000 ----- CPU =   2648.1018 (sec) ----------------
TotEng   =      -450.5518 KinEng   =       146.2233 Temp     =        11.8376 
PotEng   =      -596.7751 E_bond   =        98.7212 E_angle  =        40.1323 
E_dihed  =         0.0000 E_impro  =         1.4745 E_vdwl   =      -746.0463 
E_coul   =         8.9432 E_long   =         0.0000 Press    =       -13.9631 
---------------- Step 166200000 ----- CPU =   2669.4944 (sec) ----------------
TotEng   =      -471.4480 KinEng   =       135.4670 Temp     =