LAMMPS (27 May 2021)
OMP_NUM_THREADS environment is not set. Defaulting to 1 thread. (src/comm.cpp:98)
  using 1 OpenMP thread(s) per MPI task
# only protein 1hrc

units		real
boundary	p p p
atom_style	full
dielectric 	80

pair_style	lj/cut/coul/debye 7.1e-12 12
bond_style      harmonic
special_bonds 	lj/coul 0.0 1.0 0.0
angle_style     cosine/squared
dihedral_style  charmm
improper_style  harmonic

read_data	init_conf_fin/data1.txt
Reading data file ...
  orthogonal box = (-30.500000 -30.500000 -190.00000) to (30.500000 30.500000 190.00000)
  1 by 1 by 1 MPI processor grid
  reading atoms ...
  4145 atoms
  scanning bonds ...
  2 = max bonds/atom
  scanning angles ...
  2 = max angles/atom
  scanning impropers ...
  2 = max impropers/atom
  reading bonds ...
  169 bonds
  reading angles ...
  158 angles
  reading impropers ...
  9 impropers
Finding 1-2 1-3 1-4 neighbors ...
  special bond factors lj:    0        1        0       
  special bond factors coul:  0        1        0       
     3 = max # of 1-2 neighbors
     6 = max # of 1-3 neighbors
    16 = max # of 1-4 neighbors
    15 = max # of special neighbors
  special bonds CPU = 0.000 seconds
  read_data CPU = 0.031 seconds
region 		inside block INF INF INF INF -50.5 50.5
region 		left block  INF INF INF INF INF -50.5
region 		right block  INF INF INF INF 50.5 INF
region		stopper block INF INF INF INF INF -49.5

group		driver id 1
1 atoms in group driver
group 		protein molecule 1	#molecule number of protein
161 atoms in group protein

velocity	driver set 0 0 0.05
neighbor	1.1 bin
neigh_modify	delay 5
timestep	3

thermo_style	multi
thermo		50

#minimize 	1.0e-4 1.0e-6 100 1000
fix		1 protein nvt temp 298.15 298.15 $(100.0*dt)
fix		1 protein nvt temp 298.15 298.15 300
fix		2 protein langevin 298.15 298.15 14 12345
fix 		3 protein efield 0 0 .2 region inside
fix 		4 protein efield 0 0 .02 region left
fix 		5 protein efield 0 0 .02 region right
fix		6 driver addforce 0 0 10 region stopper

dump 		id all custom 1000 output_pp2.lammpstrj id type xu yu zu		#vmd/pymol
variable	x equal z[1]
label loop
variable a loop 1000
run 		1000
Neighbor list info ...
  update every 1 steps, delay 5 steps, check yes
  max neighbors/atom: 2000, page size: 100000
  master list distance cutoff = 13.1
  ghost atom cutoff = 13.1
  binsize = 6.55, bins = 10 10 59
  1 neighbor lists, perpetual/occasional/extra = 1 0 0
  (1) pair lj/cut/coul/debye, perpetual
      attributes: half, newton on
      pair build: half/bin/newton
      stencil: half/bin/3d
      bin: standard
Per MPI rank memory allocation (min/avg/max) = 9.913 | 9.913 | 9.913 Mbytes
---------------- Step        0 ----- CPU =      0.0000 (sec) ----------------
TotEng   =      -580.1328 KinEng   =       215.1052 Temp     =        17.4139 
PotEng   =      -795.2380 E_bond   =        52.4183 E_angle  =        32.9762 
E_dihed  =         0.0000 E_impro  =         0.6753 E_vdwl   =      -873.4110 
E_coul   =        -7.8967 E_long   =         0.0000 Press    =         3.1252 
---------------- Step       50 ----- CPU =      0.0468 (sec) ----------------
TotEng   =      -648.9954 KinEng   =       140.6997 Temp     =        11.3904 
PotEng   =      -789.6951 E_bond   =        54.6921 E_angle  =        33.5590 
E_dihed  =         0.0000 E_impro  =         0.6712 E_vdwl   =      -870.3661 
E_coul   =        -8.2513 E_long   =         0.0000 Press    =        -0.8533 
---------------- Step      100 ----- CPU =      0.0781 (sec) ----------------
TotEng   =      -639.7973 KinEng   =       144.7893 Temp     =        11.7215 
PotEng   =      -784.5866 E_bond   =        52.9211 E_angle  =        33.2761 
E_dihed  =         0.0000 E_impro  =         0.8146 E_vdwl   =      -864.0310 
E_coul   =        -7.5674 E_long   =         0.0000 Press    =         0.4833 
---------------- Step      150 ----- CPU =      0.1093 (sec) ----------------
TotEng   =      -638.8209 KinEng   =       150.5007 Temp     =        12.1838 
PotEng   =      -789.3216 E_bond   =        55.8194 E_angle  =        33.0742 
E_dihed  =         0.0000 E_impro  =         0.5648 E_vdwl   =      -871.0896 
E_coul   =        -7.6904 E_long   =         0.0000 Press    =        -1.1180 
---------------- Step      200 ----- CPU =      0.1250 (sec) ----------------
TotEng   =      -641.8366 KinEng   =       147.8551 Temp     =        11.9697 
PotEng   =      -789.6917 E_bond   =        58.6763 E_angle  =        34.1328 
E_dihed  =         0.0000 E_impro  =         0.5914 E_vdwl   =      -875.3753 
E_coul   =        -7.7169 E_long   =         0.0000 Press    =        -3.3239 
---------------- Step      250 ----- CPU =      0.1562 (sec) ----------------
TotEng   =      -646.4578 KinEng   =       133.1119 Temp     =        10.7761 
PotEng   =      -779.5698 E_bond   =        53.3120 E_angle  =        33.8637 
E_dihed  =         0.0000 E_impro  =         1.4285 E_vdwl   =      -860.2063 
E_coul   =        -7.9677 E_long   =         0.0000 Press    =        -2.1663 
---------------- Step      300 ----- CPU =      0.1719 (sec) ----------------
TotEng   =      -650.3139 KinEng   =       139.6348 Temp     =        11.3042 
PotEng   =      -789.9487 E_bond   =        55.9123 E_angle  =        32.6782 
E_dihed  =         0.0000 E_impro  =         0.8614 E_vdwl   =      -871.7897 
E_coul   =        -7.6109 E_long   =         0.0000 Press    =        -3.8622 
---------------- Step      350 ----- CPU =      0.2031 (sec) ----------------
TotEng   =      -649.7104 KinEng   =       135.7899 Temp     =        10.9929 
PotEng   =      -785.5003 E_bond   =        52.8565 E_angle  =        32.0363 
E_dihed  =         0.0000 E_impro  =         0.8577 E_vdwl   =      -863.5527 
E_coul   =        -7.6981 E_long   =         0.0000 Press    =        -1.5962 
---------------- Step      400 ----- CPU =      0.2343 (sec) ----------------
TotEng   =      -643.6785 KinEng   =       147.1624 Temp     =        11.9136 
PotEng   =      -790.8409 E_bond   =        48.1961 E_angle  =        32.9318 
E_dihed  =         0.0000 E_impro  =         0.8051 E_vdwl   =      -865.3872 
E_coul   =        -7.3867 E_long   =         0.0000 Press    =        -2.5050 
---------------- Step      450 ----- CPU =      0.2656 (sec) ----------------
TotEng   =      -650.8598 KinEng   =       133.9130 Temp     =        10.8410 
PotEng   =      -784.7728 E_bond   =        52.3606 E_angle  =        32.5429 
E_dihed  =         0.0000 E_impro  =         1.7439 E_vdwl   =      -864.3084 
E_coul   =        -7.1117 E_long   =         0.0000 Press    =        -1.7092 
---------------- Step      500 ----- CPU =      0.2812 (sec) ----------------
TotEng   =      -636.3825 KinEng   =       143.9783 Temp     =        11.6558 
PotEng   =      -780.3608 E_bond   =        62.9868 E_angle  =        33.4426 
E_dihed  =         0.0000 E_impro  =         1.6503 E_vdwl   =      -871.0838 
E_coul   =        -7.3568 E_long   =         0.0000 Press    =        -0.4344 
---------------- Step      550 ----- CPU =      0.3125 (sec) ----------------
TotEng   =      -639.3360 KinEng   =       142.6096 Temp     =        11.5450 
PotEng   =      -781.9456 E_bond   =        55.3597 E_angle  =        34.2276 
E_dihed  =         0.0000 E_impro  =         1.3415 E_vdwl   =      -866.2983 
E_coul   =        -6.5760 E_long   =         0.0000 Press    =         0.0249 
---------------- Step      600 ----- CPU =      0.3437 (sec) ----------------
TotEng   =      -629.7301 KinEng   =       153.0253 Temp     =        12.3882 
PotEng   =      -782.7554 E_bond   =        63.2315 E_angle  =        34.4618 
E_dihed  =         0.0000 E_impro  =         0.9762 E_vdwl   =      -875.0685 
E_coul   =        -6.3563 E_long   =         0.0000 Press    =        -3.3691 
---------------- Step      650 ----- CPU =      0.3594 (sec) ----------------
TotEng   =      -629.1427 KinEng   =       152.7203 Temp     =        12.3635 
PotEng   =      -781.8629 E_bond   =        59.9083 E_angle  =        32.2691 
E_dihed  =         0.0000 E_impro  =         0.8410 E_vdwl   =      -867.8934 
E_coul   =        -6.9879 E_long   =         0.0000 Press    =         1.1813 
---------------- Step      700 ----- CPU =      0.3906 (sec) ----------------
TotEng   =      -629.8142 KinEng   =       146.6632 Temp     =        11.8732 
PotEng   =      -776.4774 E_bond   =        59.5493 E_angle  =        31.8832 
E_dihed  =         0.0000 E_impro  =         0.7257 E_vdwl   =      -861.6980 
E_coul   =        -6.9375 E_long   =         0.0000 Press    =         3.0695 
---------------- Step      750 ----- CPU =      0.4062 (sec) ----------------
TotEng   =      -626.4167 KinEng   =       145.5672 Temp     =        11.7845 
PotEng   =      -771.9839 E_bond   =        63.3629 E_angle  =        33.1928 
E_dihed  =         0.0000 E_impro  =         1.5647 E_vdwl   =      -863.1439 
E_coul   =        -6.9604 E_long   =         0.0000 Press    =         2.3971 
---------------- Step      800 ----- CPU =      0.4375 (sec) ----------------
TotEng   =      -640.0075 KinEng   =       140.4124 Temp     =        11.3671 
PotEng   =      -780.4199 E_bond   =        58.4108 E_angle  =        34.6229 
E_dihed  =         0.0000 E_impro  =         1.4223 E_vdwl   =      -867.4242 
E_coul   =        -7.4516 E_long   =         0.0000 Press    =        -2.7372 
---------------- Step      850 ----- CPU =      0.4687 (sec) ----------------
TotEng   =      -629.5467 KinEng   =       148.4675 Temp     =        12.0192 
PotEng   =      -778.0141 E_bond   =        56.8536 E_angle  =        35.7076 
E_dihed  =         0.0000 E_impro  =         1.5595 E_vdwl   =      -864.8566 
E_coul   =        -7.2782 E_long   =         0.0000 Press    =        -0.3657 
---------------- Step      900 ----- CPU =      0.4999 (sec) ----------------
TotEng   =      -656.0591 KinEng   =       119.2484 Temp     =         9.6538 
PotEng   =      -775.3074 E_bond   =        61.2198 E_angle  =        36.5460 
E_dihed  =         0.0000 E_impro  =         2.1222 E_vdwl   =      -867.9090 
E_coul   =        -7.2864 E_long   =         0.0000 Press    =        -2.3893 
---------------- Step      950 ----- CPU =      0.5312 (sec) ----------------
TotEng   =      -652.3099 KinEng   =       133.0624 Temp     =        10.7721 
PotEng   =      -785.3723 E_bond   =        54.7801 E_angle  =        34.7349 
E_dihed  =         0.0000 E_impro  =         1.3421 E_vdwl   =      -868.8662 
E_coul   =        -7.3632 E_long   =         0.0000 Press    =        -2.1984 
---------------- Step     1000 ----- CPU =      0.5691 (sec) ----------------
TotEng   =      -640.0449 KinEng   =       133.9329 Temp     =        10.8426 
PotEng   =      -773.9778 E_bond   =        57.4385 E_angle  =        32.7064 
E_dihed  =         0.0000 E_impro  =         2.0287 E_vdwl   =      -858.7585 
E_coul   =        -7.3929 E_long   =         0.0000 Press    =        -1.1982 
Loop time of 0.569065 on 1 procs for 1000 steps with 4145 atoms

Performance: 455.484 ns/day, 0.053 hours/ns, 1757.268 timesteps/s
98.8% CPU use with 1 MPI tasks x 1 OpenMP threads

MPI task timing breakdown:
Section |  min time  |  avg time  |  max time  |%varavg| %total
---------------------------------------------------------------
Pair    | 0.39059    | 0.39059    | 0.39059    |   0.0 | 68.64
Bond    | 0          | 0          | 0          |   0.0 |  0.00
Neigh   | 0.078096   | 0.078096   | 0.078096   |   0.0 | 13.72
Comm    | 0.015659   | 0.015659   | 0.015659   |   0.0 |  2.75
Output  | 0.037831   | 0.037831   | 0.037831   |   0.0 |  6.65
Modify  | 0.046894   | 0.046894   | 0.046894   |   0.0 |  8.24
Other   |            | 0          |            |       |  0.00

Nlocal:        4145.00 ave        4145 max        4145 min
Histogram: 1 0 0 0 0 0 0 0 0 0
Nghost:        2208.00 ave        2208 max        2208 min
Histogram: 1 0 0 0 0 0 0 0 0 0
Neighs:        12807.0 ave       12807 max       12807 min
Histogram: 1 0 0 0 0 0 0 0 0 0

Total # of neighbors = 12807
Ave neighs/atom = 3.0897467
Ave special neighs/atom = 0.32714113
Neighbor list builds = 13
Dangerous builds = 0
if 		"${x} > -40" then "jump SELF break"
next a
jump SELF loop
variable a loop 1000
run 		1000
Per MPI rank memory allocation (min/avg/max) = 9.913 | 9.913 | 9.913 Mbytes
---------------- Step     1000 ----- CPU =      0.0000 (sec) ----------------
TotEng   =      -640.0449 KinEng   =       133.9329 Temp     =        10.8426 
PotEng   =      -773.9778 E_bond   =        57.4385 E_angle  =        32.7064 
E_dihed  =         0.0000 E_impro  =         2.0287 E_vdwl   =      -858.7585 
E_coul   =        -7.3929 E_long   =         0.0000 Press    =        -1.1982 
---------------- Step     1050 ----- CPU =      0.0313 (sec) ----------------
TotEng   =      -632.2043 KinEng   =       137.0894 Temp     =        11.0981 
PotEng   =      -769.2937 E_bond   =        67.1925 E_angle  =        31.2972 
E_dihed  =         0.0000 E_impro  =         1.3264 E_vdwl   =      -861.3658 
E_coul   =        -7.7440 E_long   =         0.0000 Press    =         0.3634 
---------------- Step     1100 ----- CPU =      0.0625 (sec) ----------------
TotEng   =      -641.3199 KinEng   =       139.6560 Temp     =        11.3059 
PotEng   =      -780.9759 E_bond   =        51.4306 E_angle  =        32.5816 
E_dihed  =         0.0000 E_impro  =         1.2263 E_vdwl   =      -858.2101 
E_coul   =        -8.0043 E_long   =         0.0000 Press    =         2.7853 
---------------- Step     1150 ----- CPU =      0.0938 (sec) ----------------
TotEng   =      -637.4651 KinEng   =       130.8823 Temp     =        10.5956 
PotEng   =      -768.3474 E_bond   =        68.8847 E_angle  =        37.7086 
E_dihed  =         0.0000 E_impro  =         1.2649 E_vdwl   =      -868.7473 
E_coul   =        -7.4583 E_long   =         0.0000 Press    =         4.0563 
---------------- Step     1200 ----- CPU =      0.1094 (sec) ----------------
TotEng   =      -606.0777 KinEng   =       161.6529 Temp     =        13.0867 
PotEng   =      -767.7306 E_bond   =        58.8596 E_angle  =        38.3343 
E_dihed  =         0.0000 E_impro  =         1.6215 E_vdwl   =      -859.1741 
E_coul   =        -7.3719 E_long   =         0.0000 Press    =         4.9088 
---------------- Step     1250 ----- CPU =      0.1407 (sec) ----------------
TotEng   =      -632.8177 KinEng   =       147.6066 Temp     =        11.9496 
PotEng   =      -780.4243 E_bond   =        56.7855 E_angle  =        37.9223 
E_dihed  =         0.0000 E_impro  =         1.4916 E_vdwl   =      -869.3414 
E_coul   =        -7.2823 E_long   =         0.0000 Press    =         2.2079 
---------------- Step     1300 ----- CPU =      0.1719 (sec) ----------------
TotEng   =      -648.0308 KinEng   =       135.5107 Temp     =        10.9703 
PotEng   =      -783.5415 E_bond   =        56.9007 E_angle  =        36.8395 
E_dihed  =         0.0000 E_impro  =         1.3218 E_vdwl   =      -871.8256 
E_coul   =        -6.7780 E_long   =         0.0000 Press    =         0.8336 
---------------- Step     1350 ----- CPU =      0.2032 (sec) ----------------
TotEng   =      -646.1520 KinEng   =       145.3961 Temp     =        11.7706 
PotEng   =      -791.5482 E_bond   =        52.7223 E_angle  =        37.2922 
E_dihed  =         0.0000 E_impro  =         1.3258 E_vdwl   =      -875.7944 
E_coul   =        -7.0940 E_long   =         0.0000 Press    =         0.8702 
---------------- Step     1400 ----- CPU =      0.2344 (sec) ----------------
TotEng   =      -644.9423 KinEng   =       148.2911 Temp     =        12.0050 
PotEng   =      -793.2334 E_bond   =        47.7396 E_angle  =        36.2195 
E_dihed  =         0.0000 E_impro  =         1.1116 E_vdwl   =      -871.1616 
E_coul   =        -7.1425 E_long   =         0.0000 Press    =        -0.2268 
---------------- Step     1450 ----- CPU =      0.2657 (sec) ----------------
TotEng   =      -646.0116 KinEng   =       136.9308 Temp     =        11.0853 
PotEng   =      -782.9424 E_bond   =        54.9063 E_angle  =        35.8375 
E_dihed  =         0.0000 E_impro  =         1.6745 E_vdwl   =      -868.2193 
E_coul   =        -7.1415 E_long   =         0.0000 Press    =        -0.3252 
---------------- Step     1500 ----- CPU =      0.2813 (sec) ----------------
TotEng   =      -650.1587 KinEng   =       140.3015 Temp     =        11.3582 
PotEng   =      -790.4602 E_bond   =        53.7834 E_angle  =        35.6153 
E_dihed  =         0.0000 E_impro  =         1.1343 E_vdwl   =      -873.9285 
E_coul   =        -7.0647 E_long   =         0.0000 Press    =         0.3597 
---------------- Step     1550 ----- CPU =      0.3125 (sec) ----------------
TotEng   =      -642.5038 KinEng   =       136.7562 Temp     =        11.0712 
PotEng   =      -779.2600 E_bond   =        62.4334 E_angle  =        35.9698 
E_dihed  =         0.0000 E_impro  =         0.9386 E_vdwl   =      -871.5843 
E_coul   =        -7.0176 E_long   =         0.0000 Press    =         0.2408 
---------------- Step     1600 ----- CPU =      0.3281 (sec) ----------------
TotEng   =      -620.1588 KinEng   =       150.6335 Temp     =        12.1946 
PotEng   =      -770.7923 E_bond   =        59.2178 E_angle  =        37.3333 
E_dihed  =         0.0000 E_impro  =         1.5055 E_vdwl   =      -861.5040 
E_coul   =        -7.3448 E_long   =         0.0000 Press    =         3.3424 
---------------- Step     1650 ----- CPU =      0.3594 (sec) ----------------
TotEng   =      -640.8088 KinEng   =       141.4594 Temp     =        11.4519 
PotEng   =      -782.2682 E_bond   =        56.7935 E_angle  =        35.1258 
E_dihed  =         0.0000 E_impro  =         0.9686 E_vdwl   =      -867.8453 
E_coul   =        -7.3109 E_long   =         0.0000 Press    =        -0.8520 
---------------- Step     1700 ----- CPU =      0.3907 (sec) ----------------
TotEng   =      -646.5856 KinEng   =       131.7848 Temp     =        10.6687 
PotEng   =      -778.3704 E_bond   =        60.8738 E_angle  =        35.5570 
E_dihed  =         0.0000 E_impro  =         2.0248 E_vdwl   =      -869.8387 
E_coul   =        -6.9873 E_long   =         0.0000 Press    =        -0.0067 
---------------- Step     1750 ----- CPU =      0.4063 (sec) ----------------
TotEng   =      -643.2412 KinEng   =       140.0151 Temp     =        11.3350 
PotEng   =      -783.2563 E_bond   =        62.5039 E_angle  =        35.4128 
E_dihed  =         0.0000 E_impro  =         1.3578 E_vdwl   =      -874.9162 
E_coul   =        -7.6145 E_long   =         0.0000 Press    =        -0.8967 
---------------- Step     1800 ----- CPU =      0.4531 (sec) ----------------
TotEng   =      -635.2217 KinEng   =       148.4442 Temp     =        12.0174 
PotEng   =      -783.6660 E_bond   =        54.3572 E_angle  =        36.3702 
E_dihed  =         0.0000 E_impro  =         0.8263 E_vdwl   =      -867.5512 
E_coul   =        -7.6684 E_long   =         0.0000 Press    =         3.3879 
---------------- Step     1850 ----- CPU =      0.4769 (sec) ----------------
TotEng   =      -635.0420 KinEng   =       146.0589 Temp     =        11.8243 
PotEng   =      -781.1008 E_bond   =        62.0655 E_angle  =        36.8378 
E_dihed  =         0.0000 E_impro  =         0.4948 E_vdwl   =      -873.2462 
E_coul   =        -7.2527 E_long   =         0.0000 Press    =         2.8512 
---------------- Step     1900 ----- CPU =      0.5082 (sec) ----------------
TotEng   =      -640.3351 KinEng   =       140.7977 Temp     =        11.3983 
PotEng   =      -781.1328 E_bond   =        52.1241 E_angle  =        38.3516 
E_dihed  =         0.0000 E_impro  =         0.6335 E_vdwl   =      -864.5367 
E_coul   =        -7.7053 E_long   =         0.0000 Press    =         4.0673 
---------------- Step     1950 ----- CPU =      0.5394 (sec) ----------------
TotEng   =      -640.7011 KinEng   =       140.9009 Temp     =        11.4067 
PotEng   =      -781.6020 E_bond   =        51.4793 E_angle  =        39.6103 
E_dihed  =         0.0000 E_impro  =         0.9421 E_vdwl   =      -865.5160 
E_coul   =        -8.1177 E_long   =         0.0000 Press    =         2.8321 
---------------- Step     2000 ----- CPU =      0.5707 (sec) ----------------
TotEng   =      -641.1037 KinEng   =       141.2127 Temp     =        11.4319 
PotEng   =      -782.3163 E_bond   =        49.6521 E_angle  =        38.1982 
E_dihed  =         0.0000 E_impro  =         1.0783 E_vdwl   =      -863.2656 
E_coul   =        -7.9794 E_long   =         0.0000 Press    =         5.3901 
Loop time of 0.570667 on 1 procs for 1000 steps with 4145 atoms

Performance: 454.205 ns/day, 0.053 hours/ns, 1752.335 timesteps/s
101.3% CPU use with 1 MPI tasks x 1 OpenMP threads

MPI task timing breakdown:
Section |  min time  |  avg time  |  max time  |%varavg| %total
---------------------------------------------------------------
Pair    | 0.39883    | 0.39883    | 0.39883    |   0.0 | 69.89
Bond    | 0          | 0          | 0          |   0.0 |  0.00
Neigh   | 0.093725   | 0.093725   | 0.093725   |   0.0 | 16.42
Comm    | 0.031214   | 0.031214   | 0.031214   |   0.0 |  5.47
Output  | 0          | 0          | 0          |   0.0 |  0.00
Modify  | 0.031279   | 0.031279   | 0.031279   |   0.0 |  5.48
Other   |            | 0.01562    |            |       |  2.74

Nlocal:        4145.00 ave        4145 max        4145 min
Histogram: 1 0 0 0 0 0 0 0 0 0
Nghost:        2209.00 ave        2209 max        2209 min
Histogram: 1 0 0 0 0 0 0 0 0 0
Neighs:        12821.0 ave       12821 max       12821 min
Histogram: 1 0 0 0 0 0 0 0 0 0

Total # of neighbors = 12821
Ave neighs/atom = 3.0931242
Ave special neighs/atom = 0.32714113
Neighbor list builds = 13
Dangerous builds = 0
if 		"${x} > -40" then "jump SELF break"
next a
jump SELF loop
variable a loop 1000
run 		1000
Per MPI rank memory allocation (min/avg/max) = 9.913 | 9.913 | 9.913 Mbytes
---------------- Step     2000 ----- CPU =      0.0000 (sec) ----------------
TotEng   =      -641.1037 KinEng   =       141.2127 Temp     =        11.4319 
PotEng   =      -782.3163 E_bond   =        49.6521 E_angle  =        38.1982 
E_dihed  =         0.0000 E_impro  =         1.0783 E_vdwl   =      -863.2656 
E_coul   =        -7.9794 E_long   =         0.0000 Press    =         5.3901 
---------------- Step     2050 ----- CPU =      0.0313 (sec) ----------------
TotEng   =      -640.4979 KinEng   =       146.5397 Temp     =        11.8632 
PotEng   =      -787.0376 E_bond   =        47.7328 E_angle  =        35.3750 
E_dihed  =         0.0000 E_impro  =         0.9349 E_vdwl   =      -863.0112 
E_coul   =        -8.0690 E_long   =         0.0000 Press    =         4.9493 
---------------- Step     2100 ----- CPU =      0.0469 (sec) ----------------
TotEng   =      -642.7880 KinEng   =       139.1240 Temp     =        11.2628 
PotEng   =      -781.9119 E_bond   =        50.8264 E_angle  =        35.3390 
E_dihed  =         0.0000 E_impro  =         0.9412 E_vdwl   =      -860.8985 
E_coul   =        -8.1200 E_long   =         0.0000 Press    =         6.0175 
---------------- Step     2150 ----- CPU =      0.0782 (sec) ----------------
TotEng   =      -627.7222 KinEng   =       145.7712 Temp     =        11.8010 
PotEng   =      -773.4934 E_bond   =        52.1985 E_angle  =        35.7746 
E_dihed  =         0.0000 E_impro  =         1.2595 E_vdwl   =      -854.9406 
E_coul   =        -7.7854 E_long   =         0.0000 Press    =         8.3960 
---------------- Step     2200 ----- CPU =      0.1094 (sec) ----------------
TotEng   =      -631.2618 KinEng   =       146.1127 Temp     =        11.8286 
PotEng   =      -777.3745 E_bond   =        54.4084 E_angle  =        35.5199 
E_dihed  =         0.0000 E_impro  =         0.7908 E_vdwl   =      -859.8023 
E_coul   =        -8.2913 E_long   =         0.0000 Press    =         4.9658 
---------------- Step     2250 ----- CPU =      0.1406 (sec) ----------------
TotEng   =      -641.8284 KinEng   =       139.7722 Temp     =        11.3153 
PotEng   =      -781.6006 E_bond   =        51.9758 E_angle  =        37.8004 
E_dihed  =         0.0000 E_impro  =         0.4885 E_vdwl   =      -863.7522 
E_coul   =        -8.1131 E_long   =         0.0000 Press    =         3.5142 
---------------- Step     2300 ----- CPU =      0.1719 (sec) ----------------
TotEng   =      -634.8789 KinEng   =       150.1283 Temp     =        12.1537 
PotEng   =      -785.0072 E_bond   =        47.4491 E_angle  =        36.9275 
E_dihed  =         0.0000 E_impro  =         0.2939 E_vdwl   =      -862.1870 
E_coul   =        -7.4907 E_long   =         0.0000 Press    =         3.0849 
---------------- Step     2350 ----- CPU =      0.1875 (sec) ----------------
TotEng   =      -625.2681 KinEng   =       148.8899 Temp     =        12.0534 
PotEng   =      -774.1580 E_bond   =        59.3827 E_angle  =        34.9899 
E_dihed  =         0.0000 E_impro  =         0.4463 E_vdwl   =      -861.5317 
E_coul   =        -7.4452 E_long   =         0.0000 Press    =         0.8396 
---------------- Step     2400 ----- CPU =      0.2188 (sec) ----------------
TotEng   =      -642.6678 KinEng   =       138.4099 Temp     =        11.2050 
PotEng   =      -781.0777 E_bond   =        50.7095 E_angle  =        34.1921 
E_dihed  =         0.0000 E_impro  =         0.6199 E_vdwl   =      -858.7862 
E_coul   =        -7.8129 E_long   =         0.0000 Press    =         5.3214 
---------------- Step     2450 ----- CPU =      0.2500 (sec) ----------------
TotEng   =      -614.7627 KinEng   =       160.6958 Temp     =        13.0092 
PotEng   =      -775.4585 E_bond   =        53.9402 E_angle  =        34.6874 
E_dihed  =         0.0000 E_impro  =         0.4806 E_vdwl   =      -856.5493 
E_coul   =        -8.0175 E_long   =         0.0000 Press    =         7.9320 
---------------- Step     2500 ----- CPU =      0.2657 (sec) ----------------
TotEng   =      -644.7987 KinEng   =       147.9502 Temp     =        11.9774 
PotEng   =      -792.7489 E_bond   =        40.8884 E_angle  =        34.2855 
E_dihed  =         0.0000 E_impro  =         0.8823 E_vdwl   =      -860.7548 
E_coul   =        -8.0502 E_long   =         0.0000 Press    =         5.5838 
---------------- Step     2550 ----- CPU =      0.2969 (sec) ----------------
TotEng   =      -650.1002 KinEng   =       151.1334 Temp     =        12.2351 
PotEng   =      -801.2336 E_bond   =        44.8516 E_angle  =        35.7911 
E_dihed  =         0.0000 E_impro  =         0.4790 E_vdwl   =      -874.0687 
E_coul   =        -8.2865 E_long   =         0.0000 Press    =         2.6100 
---------------- Step     2600 ----- CPU =      0.3282 (sec) ----------------
TotEng   =      -674.8543 KinEng   =       129.5944 Temp     =        10.4914 
PotEng   =      -804.4487 E_bond   =        46.7956 E_angle  =        33.5043 
E_dihed  =         0.0000 E_impro  =         0.7410 E_vdwl   =      -877.3571 
E_coul   =        -8.1325 E_long   =         0.0000 Press    =         0.3214 
---------------- Step     2650 ----- CPU =      0.3594 (sec) ----------------
TotEng   =      -631.9278 KinEng   =       163.1998 Temp     =        13.2119 
PotEng   =      -795.1276 E_bond   =        47.6116 E_angle  =        35.1084 
E_dihed  =         0.0000 E_impro  =         0.4628 E_vdwl   =      -870.5405 
E_coul   =        -7.7700 E_long   =         0.0000 Press    =         2.8002 
---------------- Step     2700 ----- CPU =      0.3906 (sec) ----------------
TotEng   =      -662.1257 KinEng   =       131.8737 Temp     =        10.6759 
PotEng   =      -793.9994 E_bond   =        52.3016 E_angle  =        37.1702 
E_dihed  =         0.0000 E_impro  =         0.9218 E_vdwl   =      -877.1402 
E_coul   =        -7.2528 E_long   =         0.0000 Press    =        -0.3309 
---------------- Step     2750 ----- CPU =      0.4063 (sec) ----------------
TotEng   =      -659.6063 KinEng   =       140.8020 Temp     =        11.3987 
PotEng   =      -800.4084 E_bond   =        48.6456 E_angle  =        35.6662 
E_dihed  =         0.0000 E_impro  =         0.7865 E_vdwl   =      -877.9695 
E_coul   =        -7.5372 E_long   =         0.0000 Press    =        -0.2618 
---------------- Step     2800 ----- CPU =      0.4375 (sec) ----------------
TotEng   =      -677.2668 KinEng   =       125.6021 Temp     =        10.1682 
PotEng   =      -802.8689 E_bond   =        48.6208 E_angle  =        35.1883 
E_dihed  =         0.0000 E_impro  =         1.5701 E_vdwl   =      -881.0879 
E_coul   =        -7.1602 E_long   =         0.0000 Press    =        -0.4911 
---------------- Step     2850 ----- CPU =      0.4532 (sec) ----------------
TotEng   =      -678.8459 KinEng   =       127.1304 Temp     =        10.2919 
PotEng   =      -805.9763 E_bond   =        49.4701 E_angle  =        34.9891 
E_dihed  =         0.0000 E_impro  =         0.7473 E_vdwl   =      -883.9807 
E_coul   =        -7.2020 E_long   =         0.0000 Press    =         0.3640 
---------------- Step     2900 ----- CPU =      0.4844 (sec) ----------------
TotEng   =      -663.2255 KinEng   =       144.4599 Temp     =        11.6948 
PotEng   =      -807.6853 E_bond   =        48.7520 E_angle  =        33.4049 
E_dihed  =         0.0000 E_impro  =         0.9301 E_vdwl   =      -883.4901 
E_coul   =        -7.2822 E_long   =         0.0000 Press    =         1.6131 
---------------- Step     2950 ----- CPU =      0.5157 (sec) ----------------
TotEng   =      -668.1919 KinEng   =       135.6538 Temp     =        10.9819 
PotEng   =      -803.8457 E_bond   =        54.5489 E_angle  =        34.5401 
E_dihed  =         0.0000 E_impro  =         0.5436 E_vdwl   =      -886.5853 
E_coul   =        -6.8929 E_long   =         0.0000 Press    =        -1.0428 
---------------- Step     3000 ----- CPU =      0.5469 (sec) ----------------
TotEng   =      -659.1880 KinEng   =       134.5972 Temp     =        10.8964 
PotEng   =      -793.7853 E_bond   =        60.8564 E_angle  =        33.6262 
E_dihed  =         0.0000 E_impro  =         0.8572 E_vdwl   =      -881.9267 
E_coul   =        -7.1984 E_long   =         0.0000 Press    =        -0.7387 
Loop time of 0.546904 on 1 procs for 1000 steps with 4145 atoms

Performance: 473.941 ns/day, 0.051 hours/ns, 1828.475 timesteps/s
100.0% CPU use with 1 MPI tasks x 1 OpenMP threads

MPI task timing breakdown:
Section |  min time  |  avg time  |  max time  |%varavg| %total
---------------------------------------------------------------
Pair    | 0.37502    | 0.37502    | 0.37502    |   0.0 | 68.57
Bond    | 0.015631   | 0.015631   | 0.015631   |   0.0 |  2.86
Neigh   | 0.046876   | 0.046876   | 0.046876   |   0.0 |  8.57
Comm    | 0          | 0          | 0          |   0.0 |  0.00
Output  | 0.015623   | 0.015623   | 0.015623   |   0.0 |  2.86
Modify  | 0.062505   | 0.062505   | 0.062505   |   0.0 | 11.43
Other   |            | 0.03125    |            |       |  5.71

Nlocal:        4145.00 ave        4145 max        4145 min
Histogram: 1 0 0 0 0 0 0 0 0 0
Nghost:        2207.00 ave        2207 max        2207 min
Histogram: 1 0 0 0 0 0 0 0 0 0
Neighs:        12841.0 ave       12841 max       12841 min
Histogram: 1 0 0 0 0 0 0 0 0 0

Total # of neighbors = 12841
Ave neighs/atom = 3.0979493
Ave special neighs/atom = 0.32714113
Neighbor list builds = 11
Dangerous builds = 0
if 		"${x} > -40" then "jump SELF break"
next a
jump SELF loop
variable a loop 1000
run 		1000
Per MPI rank memory allocation (min/avg/max) = 9.913 | 9.913 | 9.913 Mbytes
---------------- Step     3000 ----- CPU =      0.0000 (sec) ----------------
TotEng   =      -659.1880 KinEng   =       134.5972 Temp     =        10.8964 
PotEng   =      -793.7853 E_bond   =        60.8564 E_angle  =        33.6262 
E_dihed  =         0.0000 E_impro  =         0.8572 E_vdwl   =      -881.9267 
E_coul   =        -7.1984 E_long   =         0.0000 Press    =        -0.7387 
---------------- Step     3050 ----- CPU =      0.0313 (sec) ----------------
TotEng   =      -640.9795 KinEng   =       154.9007 Temp     =        12.5401 
PotEng   =      -795.8802 E_bond   =        53.3720 E_angle  =        35.0197 
E_dihed  =         0.0000 E_impro  =         0.7890 E_vdwl   =      -878.9298 
E_coul   =        -6.1311 E_long   =         0.0000 Press    =         3.0707 
---------------- Step     3100 ----- CPU =      0.0469 (sec) ----------------
TotEng   =      -648.3875 KinEng   =       149.5331 Temp     =        12.1055 
PotEng   =      -797.9206 E_bond   =        52.4434 E_angle  =        34.5421 
E_dihed  =         0.0000 E_impro  =         0.7261 E_vdwl   =      -878.8120 
E_coul   =        -6.8201 E_long   =         0.0000 Press    =         1.6452 
---------------- Step     3150 ----- CPU =      0.0781 (sec) ----------------
TotEng   =      -652.8743 KinEng   =       148.4601 Temp     =        12.0187 
PotEng   =      -801.3344 E_bond   =        45.4023 E_angle  =        35.4013 
E_dihed  =         0.0000 E_impro  =         0.9092 E_vdwl   =      -875.9135 
E_coul   =        -7.1337 E_long   =         0.0000 Press    =         2.3575 
---------------- Step     3200 ----- CPU =      0.0938 (sec) ----------------
TotEng   =      -665.8576 KinEng   =       135.9525 Temp     =        11.0061 
PotEng   =      -801.8101 E_bond   =        46.2283 E_angle  =        36.0374 
E_dihed  =         0.0000 E_impro  =         1.0237 E_vdwl   =      -878.3650 
E_coul   =        -6.7346 E_long   =         0.0000 Press    =        -3.2825 
---------------- Step     3250 ----- CPU =      0.1250 (sec) ----------------
TotEng   =      -658.6529 KinEng   =       141.6728 Temp     =        11.4692 
PotEng   =      -800.3257 E_bond   =        44.8142 E_angle  =        36.6788 
E_dihed  =         0.0000 E_impro  =         1.2125 E_vdwl   =      -876.4016 
E_coul   =        -6.6297 E_long   =         0.0000 Press    =        -2.3178 
---------------- Step     3300 ----- CPU =      0.1563 (sec) ----------------
TotEng   =      -647.6689 KinEng   =       146.5226 Temp     =        11.8618 
PotEng   =      -794.1915 E_bond   =        50.0307 E_angle  =        33.9047 
E_dihed  =         0.0000 E_impro  =         1.1871 E_vdwl   =      -872.5604 
E_coul   =        -6.7536 E_long   =         0.0000 Press    =        -0.4758 
---------------- Step     3350 ----- CPU =      0.1719 (sec) ----------------
TotEng   =      -662.3203 KinEng   =       133.1133 Temp     =        10.7762 
PotEng   =      -795.4336 E_bond   =        50.7902 E_angle  =        33.8951 
E_dihed  =         0.0000 E_impro  =         1.0480 E_vdwl   =      -874.8259 
E_coul   =        -6.3410 E_long   =         0.0000 Press    =        -3.8997 
---------------- Step     3400 ----- CPU =      0.2031 (sec) ----------------
TotEng   =      -662.0728 KinEng   =       137.8087 Temp     =        11.1564 
PotEng   =      -799.8815 E_bond   =        48.4608 E_angle  =        34.6855 
E_dihed  =         0.0000 E_impro  =         0.9740 E_vdwl   =      -877.6754 
E_coul   =        -6.3264 E_long   =         0.0000 Press    =         0.2384 
---------------- Step     3450 ----- CPU =      0.2403 (sec) ----------------
TotEng   =      -672.0352 KinEng   =       134.0526 Temp     =        10.8523 
PotEng   =      -806.0878 E_bond   =        49.0269 E_angle  =        32.9147 
E_dihed  =         0.0000 E_impro  =         1.3431 E_vdwl   =      -882.3321 
E_coul   =        -7.0404 E_long   =         0.0000 Press    =         0.8191 
---------------- Step     3500 ----- CPU =      0.2559 (sec) ----------------
TotEng   =      -646.2884 KinEng   =       145.0423 Temp     =        11.7420 
PotEng   =      -791.3306 E_bond   =        52.0441 E_angle  =        36.5679 
E_dihed  =         0.0000 E_impro  =         1.3204 E_vdwl   =      -874.5938 
E_coul   =        -6.6692 E_long   =         0.0000 Press    =         3.1103 
---------------- Step     3550 ----- CPU =      0.2872 (sec) ----------------
TotEng   =      -652.8611 KinEng   =       140.4157 Temp     =        11.3674 
PotEng   =      -793.2768 E_bond   =        56.3802 E_angle  =        33.7698 
E_dihed  =         0.0000 E_impro  =         1.6259 E_vdwl   =      -877.6149 
E_coul   =        -7.4379 E_long   =         0.0000 Press    =         0.0368 
---------------- Step     3600 ----- CPU =      0.3028 (sec) ----------------
TotEng   =      -663.6011 KinEng   =       139.2283 Temp     =        11.2713 
PotEng   =      -802.8294 E_bond   =        48.2876 E_angle  =        33.7027 
E_dihed  =         0.0000 E_impro  =         0.4445 E_vdwl   =      -877.8222 
E_coul   =        -7.4420 E_long   =         0.0000 Press    =        -3.5257 
---------------- Step     3650 ----- CPU =      0.3340 (sec) ----------------
TotEng   =      -653.5619 KinEng   =       146.2597 Temp     =        11.8405 
PotEng   =      -799.8216 E_bond   =        44.1754 E_angle  =        34.5657 
E_dihed  =         0.0000 E_impro  =         0.4119 E_vdwl   =      -871.4751 
E_coul   =        -7.4996 E_long   =         0.0000 Press    =        -1.9473 
---------------- Step     3700 ----- CPU =      0.3653 (sec) ----------------
TotEng   =      -655.7413 KinEng   =       141.3234 Temp     =        11.4409 
PotEng   =      -797.0647 E_bond   =        48.0765 E_angle  =        36.7610 
E_dihed  =         0.0000 E_impro  =         0.4786 E_vdwl   =      -875.3368 
E_coul   =        -7.0440 E_long   =         0.0000 Press    =        -4.8806 
---------------- Step     3750 ----- CPU =      0.3809 (sec) ----------------
TotEng   =      -649.2621 KinEng   =       144.9479 Temp     =        11.7343 
PotEng   =      -794.2100 E_bond   =        46.5674 E_angle  =        38.4328 
E_dihed  =         0.0000 E_impro  =         1.1936 E_vdwl   =      -874.0351 
E_coul   =        -6.3686 E_long   =         0.0000 Press    =        -2.8147 
---------------- Step     3800 ----- CPU =      0.4122 (sec) ----------------
TotEng   =      -651.9695 KinEng   =       143.6977 Temp     =        11.6331 
PotEng   =      -795.6673 E_bond   =        43.2678 E_angle  =        37.8694 
E_dihed  =         0.0000 E_impro  =         1.4524 E_vdwl   =      -872.2661 
E_coul   =        -5.9908 E_long   =         0.0000 Press    =        -3.7867 
---------------- Step     3850 ----- CPU =      0.4278 (sec) ----------------
TotEng   =      -658.0405 KinEng   =       135.2705 Temp     =        10.9509 
PotEng   =      -793.3110 E_bond   =        43.8625 E_angle  =        38.2890 
E_dihed  =         0.0000 E_impro  =         1.7599 E_vdwl   =      -870.8480 
E_coul   =        -6.3744 E_long   =         0.0000 Press    =        -4.7235 
---------------- Step     3900 ----- CPU =      0.4747 (sec) ----------------
TotEng   =      -639.7304 KinEng   =       149.5427 Temp     =        12.1063 
PotEng   =      -789.2731 E_bond   =        44.9954 E_angle  =        39.1062 
E_dihed  =         0.0000 E_impro  =         1.0391 E_vdwl   =      -868.3675 
E_coul   =        -6.0463 E_long   =         0.0000 Press    =        -1.9720 
---------------- Step     3950 ----- CPU =      0.5059 (sec) ----------------
TotEng   =      -640.3153 KinEng   =       150.2266 Temp     =        12.1617 
PotEng   =      -790.5419 E_bond   =        51.6358 E_angle  =        36.9119 
E_dihed  =         0.0000 E_impro  =         1.5806 E_vdwl   =      -874.6676 
E_coul   =        -6.0025 E_long   =         0.0000 Press    =        -4.0161 
---------------- Step     4000 ----- CPU =      0.5528 (sec) ----------------
TotEng   =      -639.7784 KinEng   =       144.8241 Temp     =        11.7243 
PotEng   =      -784.6026 E_bond   =        51.0275 E_angle  =        38.2641 
E_dihed  =         0.0000 E_impro  =         1.8577 E_vdwl   =      -869.6201 
E_coul   =        -6.1317 E_long   =         0.0000 Press    =        -1.5086 
Loop time of 0.552789 on 1 procs for 1000 steps with 4145 atoms

Performance: 468.895 ns/day, 0.051 hours/ns, 1809.009 timesteps/s
98.9% CPU use with 1 MPI tasks x 1 OpenMP threads

MPI task timing breakdown:
Section |  min time  |  avg time  |  max time  |%varavg| %total
---------------------------------------------------------------
Pair    | 0.42668    | 0.42668    | 0.42668    |   0.0 | 77.19
Bond    | 0          | 0          | 0          |   0.0 |  0.00
Neigh   | 0.046912   | 0.046912   | 0.046912   |   0.0 |  8.49
Comm    | 0.015623   | 0.015623   | 0.015623   |   0.0 |  2.83
Output  | 0.031251   | 0.031251   | 0.031251   |   0.0 |  5.65
Modify  | 0.0010059  | 0.0010059  | 0.0010059  |   0.0 |  0.18
Other   |            | 0.03132    |            |       |  5.67

Nlocal:        4145.00 ave        4145 max        4145 min
Histogram: 1 0 0 0 0 0 0 0 0 0
Nghost:        2206.00 ave        2206 max        2206 min
Histogram: 1 0 0 0 0 0 0 0 0 0
Neighs:        12799.0 ave       12799 max       12799 min
Histogram: 1 0 0 0 0 0 0 0 0 0

Total # of neighbors = 12799
Ave neighs/atom = 3.0878166
Ave special neighs/atom = 0.32714113
Neighbor list builds = 12
Dangerous builds = 0
if 		"${x} > -40" then "jump SELF break"
next a
jump SELF loop
variable a loop 1000
run 		1000
Per MPI rank memory allocation (min/avg/max) = 9.913 | 9.913 | 9.913 Mbytes
---------------- Step     4000 ----- CPU =      0.0000 (sec) ----------------
TotEng   =      -639.7784 KinEng   =       144.8241 Temp     =        11.7243 
PotEng   =      -784.6026 E_bond   =        51.0275 E_angle  =        38.2641 
E_dihed  =         0.0000 E_impro  =         1.8577 E_vdwl   =      -869.6201 
E_coul   =        -6.1317 E_long   =         0.0000 Press    =        -1.5086 
---------------- Step     4050 ----- CPU =      0.0312 (sec) ----------------
TotEng   =      -638.8132 KinEng   =       155.5648 Temp     =        12.5938 
PotEng   =      -794.3780 E_bond   =        48.1470 E_angle  =        38.3362 
E_dihed  =         0.0000 E_impro  =         2.0555 E_vdwl   =      -877.0224 
E_coul   =        -5.8944 E_long   =         0.0000 Press    =        -0.8323 
---------------- Step     4100 ----- CPU =      0.0625 (sec) ----------------
TotEng   =      -650.6005 KinEng   =       144.0868 Temp     =        11.6646 
PotEng   =      -794.6873 E_bond   =        48.4651 E_angle  =        38.4451 
E_dihed  =         0.0000 E_impro  =         1.8506 E_vdwl   =      -876.6099 
E_coul   =        -6.8382 E_long   =         0.0000 Press    =        -3.3402 
---------------- Step     4150 ----- CPU =      0.0937 (sec) ----------------
TotEng   =      -647.0785 KinEng   =       139.8678 Temp     =        11.3231 
PotEng   =      -786.9463 E_bond   =        49.5068 E_angle  =        40.0514 
E_dihed  =         0.0000 E_impro  =         1.6708 E_vdwl   =      -871.0631 
E_coul   =        -7.1123 E_long   =         0.0000 Press    =        -3.4792 
---------------- Step     4200 ----- CPU =      0.1094 (sec) ----------------
TotEng   =      -633.4454 KinEng   =       158.2377 Temp     =        12.8102 
PotEng   =      -791.6832 E_bond   =        51.6198 E_angle  =        39.4291 
E_dihed  =         0.0000 E_impro  =         1.5359 E_vdwl   =      -877.0993 
E_coul   =        -7.1686 E_long   =         0.0000 Press    =        -2.6732 
---------------- Step     4250 ----- CPU =      0.1406 (sec) ----------------
TotEng   =      -653.3103 KinEng   =       143.4863 Temp     =        11.6160 
PotEng   =      -796.7967 E_bond   =        49.4227 E_angle  =        39.5797 
E_dihed  =         0.0000 E_impro  =         1.0983 E_vdwl   =      -879.7368 
E_coul   =        -7.1605 E_long   =         0.0000 Press    =        -1.4067 
---------------- Step     4300 ----- CPU =      0.1562 (sec) ----------------
TotEng   =      -652.7741 KinEng   =       142.0995 Temp     =        11.5037 
PotEng   =      -794.8735 E_bond   =        47.5218 E_angle  =        39.9377 
E_dihed  =         0.0000 E_impro  =         1.5923 E_vdwl   =      -877.7430 
E_coul   =        -6.1823 E_long   =         0.0000 Press    =        -0.5261 
---------------- Step     4350 ----- CPU =      0.1875 (sec) ----------------
TotEng   =      -660.1699 KinEng   =       141.9588 Temp     =        11.4923 
PotEng   =      -802.1287 E_bond   =        41.6641 E_angle  =        38.7985 
E_dihed  =         0.0000 E_impro  =         1.8518 E_vdwl   =      -878.2276 
E_coul   =        -6.2154 E_long   =         0.0000 Press    =        -0.5477 
---------------- Step     4400 ----- CPU =      0.2031 (sec) ----------------
TotEng   =      -656.0249 KinEng   =       139.7178 Temp     =        11.3109 
PotEng   =      -795.7427 E_bond   =        43.0689 E_angle  =        39.3661 
E_dihed  =         0.0000 E_impro  =         1.8168 E_vdwl   =      -873.3587 
E_coul   =        -6.6357 E_long   =         0.0000 Press    =        -0.0502 
---------------- Step     4450 ----- CPU =      0.2344 (sec) ----------------
TotEng   =      -649.3670 KinEng   =       149.8363 Temp     =        12.1301 
PotEng   =      -799.2033 E_bond   =        38.5994 E_angle  =        40.3821 
E_dihed  =         0.0000 E_impro  =         1.6022 E_vdwl   =      -873.0022 
E_coul   =        -6.7849 E_long   =         0.0000 Press    =        -0.6245 
---------------- Step     4500 ----- CPU =      0.2656 (sec) ----------------
TotEng   =      -648.2890 KinEng   =       139.9849 Temp     =        11.3325 
PotEng   =      -788.2738 E_bond   =        48.9743 E_angle  =        41.5523 
E_dihed  =         0.0000 E_impro  =         1.1413 E_vdwl   =      -873.6091 
E_coul   =        -6.3326 E_long   =         0.0000 Press    =        -4.3251 
---------------- Step     4550 ----- CPU =      0.2969 (sec) ----------------
TotEng   =      -627.4171 KinEng   =       155.0818 Temp     =        12.5547 
PotEng   =      -782.4989 E_bond   =        48.5362 E_angle  =        41.9219 
E_dihed  =         0.0000 E_impro  =         1.2737 E_vdwl   =      -867.4999 
E_coul   =        -6.7308 E_long   =         0.0000 Press    =         2.1092 
---------------- Step     4600 ----- CPU =      0.3281 (sec) ----------------
TotEng   =      -648.5175 KinEng   =       132.9297 Temp     =        10.7614 
PotEng   =      -781.4472 E_bond   =        51.5684 E_angle  =        43.0259 
E_dihed  =         0.0000 E_impro  =         1.6866 E_vdwl   =      -871.4815 
E_coul   =        -6.2467 E_long   =         0.0000 Press    =        -0.1339 
---------------- Step     4650 ----- CPU =      0.3437 (sec) ----------------
TotEng   =      -638.0530 KinEng   =       140.0761 Temp     =        11.3399 
PotEng   =      -778.1291 E_bond   =        53.3835 E_angle  =        41.6561 
E_dihed  =         0.0000 E_impro  =         1.5716 E_vdwl   =      -868.4515 
E_coul   =        -6.2888 E_long   =         0.0000 Press    =         3.1420 
---------------- Step     4700 ----- CPU =      0.3750 (sec) ----------------
TotEng   =      -656.5117 KinEng   =       124.7245 Temp     =        10.0971 
PotEng   =      -781.2362 E_bond   =        46.6119 E_angle  =        41.4462 
E_dihed  =         0.0000 E_impro  =         2.2677 E_vdwl   =      -864.9915 
E_coul   =        -6.5705 E_long   =         0.0000 Press    =         4.7156 
---------------- Step     4750 ----- CPU =      0.4062 (sec) ----------------
TotEng   =      -658.3139 KinEng   =       141.9232 Temp     =        11.4895 
PotEng   =      -800.2371 E_bond   =        44.9788 E_angle  =        38.4250 
E_dihed  =         0.0000 E_impro  =         1.5096 E_vdwl   =      -878.5672 
E_coul   =        -6.5832 E_long   =         0.0000 Press    =         1.6242 
---------------- Step     4800 ----- CPU =      0.4531 (sec) ----------------
TotEng   =      -654.9331 KinEng   =       147.5280 Temp     =        11.9432 
PotEng   =      -802.4611 E_bond   =        44.1821 E_angle  =        39.0826 
E_dihed  =         0.0000 E_impro  =         1.5135 E_vdwl   =      -880.3751 
E_coul   =        -6.8642 E_long   =         0.0000 Press    =         1.3187 
---------------- Step     4850 ----- CPU =      0.4844 (sec) ----------------
TotEng   =      -663.6001 KinEng   =       140.0580 Temp     =        11.3385 
PotEng   =      -803.6580 E_bond   =        47.2330 E_angle  =        37.1438 
E_dihed  =         0.0000 E_impro  =         1.4771 E_vdwl   =      -882.2553 
E_coul   =        -7.2566 E_long   =         0.0000 Press    =         2.5291 
---------------- Step     4900 ----- CPU =      0.5156 (sec) ----------------
TotEng   =      -675.1121 KinEng   =       138.4351 Temp     =        11.2071 
PotEng   =      -813.5472 E_bond   =        44.5773 E_angle  =        37.0487 
E_dihed  =         0.0000 E_impro  =         1.9533 E_vdwl   =      -890.2072 
E_coul   =        -6.9193 E_long   =         0.0000 Press    =         1.6414 
---------------- Step     4950 ----- CPU =      0.5312 (sec) ----------------
TotEng   =      -659.9149 KinEng   =       144.5015 Temp     =        11.6982 
PotEng   =      -804.4165 E_bond   =        53.9309 E_angle  =        37.6461 
E_dihed  =         0.0000 E_impro  =         1.3815 E_vdwl   =      -890.8318 
E_coul   =        -6.5432 E_long   =         0.0000 Press    =         0.8747 
---------------- Step     5000 ----- CPU =      0.5625 (sec) ----------------
TotEng   =      -655.9258 KinEng   =       145.1298 Temp     =        11.7490 
PotEng   =      -801.0556 E_bond   =        52.3613 E_angle  =        38.6650 
E_dihed  =         0.0000 E_impro  =         1.4871 E_vdwl   =      -887.4637 
E_coul   =        -6.1053 E_long   =         0.0000 Press    =         1.1038 
Loop time of 0.562503 on 1 procs for 1000 steps with 4145 atoms

Performance: 460.797 ns/day, 0.052 hours/ns, 1777.768 timesteps/s
100.0% CPU use with 1 MPI tasks x 1 OpenMP threads

MPI task timing breakdown:
Section |  min time  |  avg time  |  max time  |%varavg| %total
---------------------------------------------------------------
Pair    | 0.39063    | 0.39063    | 0.39063    |   0.0 | 69.44
Bond    | 0          | 0          | 0          |   0.0 |  0.00
Neigh   | 0.062503   | 0.062503   | 0.062503   |   0.0 | 11.11
Comm    | 0.015629   | 0.015629   | 0.015629   |   0.0 |  2.78
Output  | 0          | 0          | 0          |   0.0 |  0.00
Modify  | 0.093742   | 0.093742   | 0.093742   |   0.0 | 16.67
Other   |            | 0          |            |       |  0.00

Nlocal:        4145.00 ave        4145 max        4145 min
Histogram: 1 0 0 0 0 0 0 0 0 0
Nghost:        2207.00 ave        2207 max        2207 min
Histogram: 1 0 0 0 0 0 0 0 0 0
Neighs:        12845.0 ave       12845 max       12845 min
Histogram: 1 0 0 0 0 0 0 0 0 0

Total # of neighbors = 12845
Ave neighs/atom = 3.0989144
Ave special neighs/atom = 0.32714113
Neighbor list builds = 11
Dangerous builds = 0
if 		"${x} > -40" then "jump SELF break"
next a
jump SELF loop
variable a loop 1000
run 		1000
Per MPI rank memory allocation (min/avg/max) = 9.913 | 9.913 | 9.913 Mbytes
---------------- Step     5000 ----- CPU =      0.0000 (sec) ----------------
TotEng   =      -655.9258 KinEng   =       145.1298 Temp     =        11.7490 
PotEng   =      -801.0556 E_bond   =        52.3613 E_angle  =        38.6650 
E_dihed  =         0.0000 E_impro  =         1.4871 E_vdwl   =      -887.4637 
E_coul   =        -6.1053 E_long   =         0.0000 Press    =         1.1038 
---------------- Step     5050 ----- CPU =      0.0157 (sec) ----------------
TotEng   =      -654.8050 KinEng   =       146.3333 Temp     =        11.8465 
PotEng   =      -801.1383 E_bond   =        49.0555 E_angle  =        41.0867 
E_dihed  =         0.0000 E_impro  =         1.1428 E_vdwl   =      -885.7080 
E_coul   =        -6.7153 E_long   =         0.0000 Press    =         0.7835 
---------------- Step     5100 ----- CPU =      0.0469 (sec) ----------------
TotEng   =      -647.1274 KinEng   =       148.9441 Temp     =        12.0578 
PotEng   =      -796.0715 E_bond   =        52.6719 E_angle  =        41.9727 
E_dihed  =         0.0000 E_impro  =         1.2722 E_vdwl   =      -885.4234 
E_coul   =        -6.5648 E_long   =         0.0000 Press    =        -1.0813 
---------------- Step     5150 ----- CPU =      0.0625 (sec) ----------------
TotEng   =      -658.4308 KinEng   =       147.1195 Temp     =        11.9101 
PotEng   =      -805.5504 E_bond   =        51.3908 E_angle  =        38.2806 
E_dihed  =         0.0000 E_impro  =         0.9913 E_vdwl   =      -889.2773 
E_coul   =        -6.9357 E_long   =         0.0000 Press    =         0.1220 
---------------- Step     5200 ----- CPU =      0.0938 (sec) ----------------
TotEng   =      -663.5889 KinEng   =       144.8571 Temp     =        11.7270 
PotEng   =      -808.4460 E_bond   =        49.7859 E_angle  =        36.0391 
E_dihed  =         0.0000 E_impro  =         1.0885 E_vdwl   =      -888.1500 
E_coul   =        -7.2094 E_long   =         0.0000 Press    =        -2.0187 
---------------- Step     5250 ----- CPU =      0.1250 (sec) ----------------
TotEng   =      -653.6759 KinEng   =       155.1587 Temp     =        12.5609 
PotEng   =      -808.8346 E_bond   =        45.5070 E_angle  =        34.7281 
E_dihed  =         0.0000 E_impro  =         1.0545 E_vdwl   =      -883.2094 
E_coul   =        -6.9148 E_long   =         0.0000 Press    =        -1.0491 
---------------- Step     5300 ----- CPU =      0.1407 (sec) ----------------
TotEng   =      -674.0099 KinEng   =       127.3641 Temp     =        10.3108 
PotEng   =      -801.3740 E_bond   =        52.0040 E_angle  =        34.7511 
E_dihed  =         0.0000 E_impro  =         1.0323 E_vdwl   =      -882.5519 
E_coul   =        -6.6096 E_long   =         0.0000 Press    =        -1.5641 
---------------- Step     5350 ----- CPU =      0.1719 (sec) ----------------
TotEng   =      -678.6279 KinEng   =       124.7144 Temp     =        10.0963 
PotEng   =      -803.3423 E_bond   =        45.8761 E_angle  =        34.5846 
E_dihed  =         0.0000 E_impro  =         1.2207 E_vdwl   =      -878.6173 
E_coul   =        -6.4064 E_long   =         0.0000 Press    =        -0.7930 
---------------- Step     5400 ----- CPU =      0.1875 (sec) ----------------
TotEng   =      -652.1385 KinEng   =       145.5651 Temp     =        11.7843 
PotEng   =      -797.7036 E_bond   =        54.9019 E_angle  =        35.3825 
E_dihed  =         0.0000 E_impro  =         1.9754 E_vdwl   =      -883.3717 
E_coul   =        -6.5917 E_long   =         0.0000 Press    =        -1.0525 
---------------- Step     5450 ----- CPU =      0.2188 (sec) ----------------
TotEng   =      -653.7963 KinEng   =       152.0419 Temp     =        12.3086 
PotEng   =      -805.8382 E_bond   =        47.1384 E_angle  =        34.9190 
E_dihed  =         0.0000 E_impro  =         2.2268 E_vdwl   =      -883.8638 
E_coul   =        -6.2587 E_long   =         0.0000 Press    =        -0.7242 
---------------- Step     5500 ----- CPU =      0.2500 (sec) ----------------
TotEng   =      -649.1410 KinEng   =       147.5146 Temp     =        11.9421 
PotEng   =      -796.6556 E_bond   =        54.3983 E_angle  =        34.7942 
E_dihed  =         0.0000 E_impro  =         1.9436 E_vdwl   =      -881.4136 
E_coul   =        -6.3781 E_long   =         0.0000 Press    =        -0.4741 
---------------- Step     5550 ----- CPU =      0.2657 (sec) ----------------
TotEng   =      -652.2072 KinEng   =       142.4416 Temp     =        11.5314 
PotEng   =      -794.6489 E_bond   =        51.0452 E_angle  =        35.0146 
E_dihed  =         0.0000 E_impro  =         2.6808 E_vdwl   =      -877.4720 
E_coul   =        -5.9175 E_long   =         0.0000 Press    =        -0.3205 
---------------- Step     5600 ----- CPU =      0.2969 (sec) ----------------
TotEng   =      -657.4944 KinEng   =       134.3897 Temp     =        10.8796 
PotEng   =      -791.8841 E_bond   =        52.3451 E_angle  =        32.3259 
E_dihed  =         0.0000 E_impro  =         2.9752 E_vdwl   =      -873.6236 
E_coul   =        -5.9067 E_long   =         0.0000 Press    =        -0.2132 
---------------- Step     5650 ----- CPU =      0.3282 (sec) ----------------
TotEng   =      -660.2890 KinEng   =       134.3213 Temp     =        10.8740 
PotEng   =      -794.6102 E_bond   =        50.4071 E_angle  =        31.6457 
E_dihed  =         0.0000 E_impro  =         3.0315 E_vdwl   =      -874.1526 
E_coul   =        -5.5419 E_long   =         0.0000 Press    =        -1.1380 
---------------- Step     5700 ----- CPU =      0.3594 (sec) ----------------
TotEng   =      -656.0969 KinEng   =       139.6441 Temp     =        11.3049 
PotEng   =      -795.7410 E_bond   =        55.9047 E_angle  =        31.3243 
E_dihed  =         0.0000 E_impro  =         2.2080 E_vdwl   =      -879.3401 
E_coul   =        -5.8379 E_long   =         0.0000 Press    =        -0.9023 
---------------- Step     5750 ----- CPU =      0.3907 (sec) ----------------
TotEng   =      -649.4883 KinEng   =       147.1691 Temp     =        11.9141 
PotEng   =      -796.6574 E_bond   =        54.7912 E_angle  =        31.5261 
E_dihed  =         0.0000 E_impro  =         2.5037 E_vdwl   =      -880.0042 
E_coul   =        -5.4742 E_long   =         0.0000 Press    =        -0.1166 
---------------- Step     5800 ----- CPU =      0.4219 (sec) ----------------
TotEng   =      -648.0349 KinEng   =       141.7398 Temp     =        11.4746 
PotEng   =      -789.7747 E_bond   =        56.5429 E_angle  =        31.1203 
E_dihed  =         0.0000 E_impro  =         1.7939 E_vdwl   =      -873.0024 
E_coul   =        -6.2294 E_long   =         0.0000 Press    =        -2.6911 
---------------- Step     5850 ----- CPU =      0.4545 (sec) ----------------
TotEng   =      -659.9739 KinEng   =       130.1374 Temp     =        10.5353 
PotEng   =      -790.1112 E_bond   =        53.6910 E_angle  =        31.9438 
E_dihed  =         0.0000 E_impro  =         1.6972 E_vdwl   =      -870.6562 
E_coul   =        -6.7870 E_long   =         0.0000 Press    =        -3.8667 
---------------- Step     5900 ----- CPU =      0.4744 (sec) ----------------
TotEng   =      -636.8340 KinEng   =       147.4979 Temp     =        11.9408 
PotEng   =      -784.3319 E_bond   =        55.9359 E_angle  =        32.1243 
E_dihed  =         0.0000 E_impro  =         1.8203 E_vdwl   =      -868.1677 
E_coul   =        -6.0447 E_long   =         0.0000 Press    =        -2.1713 
---------------- Step     5950 ----- CPU =      0.5056 (sec) ----------------
TotEng   =      -640.4611 KinEng   =       145.1453 Temp     =        11.7503 
PotEng   =      -785.6063 E_bond   =        60.6345 E_angle  =        33.8987 
E_dihed  =         0.0000 E_impro  =         1.5449 E_vdwl   =      -876.3739 
E_coul   =        -5.3106 E_long   =         0.0000 Press    =        -2.5532 
---------------- Step     6000 ----- CPU =      0.5212 (sec) ----------------
TotEng   =      -625.1307 KinEng   =       141.0589 Temp     =        11.4195 
PotEng   =      -766.1897 E_bond   =        60.1423 E_angle  =        34.9101 
E_dihed  =         0.0000 E_impro  =         1.6274 E_vdwl   =      -857.1021 
E_coul   =        -5.7673 E_long   =         0.0000 Press    =        -1.0740 
Loop time of 0.521246 on 1 procs for 1000 steps with 4145 atoms

Performance: 497.270 ns/day, 0.048 hours/ns, 1918.479 timesteps/s
101.9% CPU use with 1 MPI tasks x 1 OpenMP threads

MPI task timing breakdown:
Section |  min time  |  avg time  |  max time  |%varavg| %total
---------------------------------------------------------------
Pair    | 0.40861    | 0.40861    | 0.40861    |   0.0 | 78.39
Bond    | 0.04689    | 0.04689    | 0.04689    |   0.0 |  9.00
Neigh   | 0          | 0          | 0          |   0.0 |  0.00
Comm    | 0.015625   | 0.015625   | 0.015625   |   0.0 |  3.00
Output  | 0.0010641  | 0.0010641  | 0.0010641  |   0.0 |  0.20
Modify  | 0.03239    | 0.03239    | 0.03239    |   0.0 |  6.21
Other   |            | 0.01666    |            |       |  3.20

Nlocal:        4145.00 ave        4145 max        4145 min
Histogram: 1 0 0 0 0 0 0 0 0 0
Nghost:        2205.00 ave        2205 max        2205 min
Histogram: 1 0 0 0 0 0 0 0 0 0
Neighs:        12802.0 ave       12802 max       12802 min
Histogram: 1 0 0 0 0 0 0 0 0 0

Total # of neighbors = 12802
Ave neighs/atom = 3.0885404
Ave special neighs/atom = 0.32714113
Neighbor list builds = 10
Dangerous builds = 0
if 		"${x} > -40" then "jump SELF break"
next a
jump SELF loop
variable a loop 1000
run 		1000
Per MPI rank memory allocation (min/avg/max) = 9.913 | 9.913 | 9.913 Mbytes
---------------- Step     6000 ----- CPU =      0.0000 (sec) ----------------
TotEng   =      -625.1307 KinEng   =       141.0589 Temp     =        11.4195 
PotEng   =      -766.1897 E_bond   =        60.1423 E_angle  =        34.9101 
E_dihed  =         0.0000 E_impro  =         1.6274 E_vdwl   =      -857.1021 
E_coul   =        -5.7673 E_long   =         0.0000 Press    =        -1.0740 
---------------- Step     6050 ----- CPU =      0.0313 (sec) ----------------
TotEng   =      -621.4041 KinEng   =       145.0318 Temp     =        11.7411 
PotEng   =      -766.4359 E_bond   =        59.1080 E_angle  =        35.5941 
E_dihed  =         0.0000 E_impro  =         2.3600 E_vdwl   =      -857.6916 
E_coul   =        -5.8063 E_long   =         0.0000 Press    =        -2.1944 
---------------- Step     6100 ----- CPU =      0.0469 (sec) ----------------
TotEng   =      -632.6985 KinEng   =       129.6995 Temp     =        10.4999 
PotEng   =      -762.3980 E_bond   =        65.3362 E_angle  =        36.4421 
E_dihed  =         0.0000 E_impro  =         2.1798 E_vdwl   =      -860.2289 
E_coul   =        -6.1273 E_long   =         0.0000 Press    =        -3.7276 
---------------- Step     6150 ----- CPU =      0.0781 (sec) ----------------
TotEng   =      -632.6720 KinEng   =       143.5833 Temp     =        11.6238 
PotEng   =      -776.2553 E_bond   =        55.6533 E_angle  =        36.8147 
E_dihed  =         0.0000 E_impro  =         1.4234 E_vdwl   =      -863.9160 
E_coul   =        -6.2307 E_long   =         0.0000 Press    =        -1.2188 
---------------- Step     6200 ----- CPU =      0.1094 (sec) ----------------
TotEng   =      -647.3237 KinEng   =       144.2386 Temp     =        11.6769 
PotEng   =      -791.5623 E_bond   =        55.3937 E_angle  =        35.3732 
E_dihed  =         0.0000 E_impro  =         1.2783 E_vdwl   =      -877.6242 
E_coul   =        -5.9832 E_long   =         0.0000 Press    =        -4.0555 
---------------- Step     6250 ----- CPU =      0.1250 (sec) ----------------
TotEng   =      -649.7793 KinEng   =       135.9063 Temp     =        11.0024 
PotEng   =      -785.6856 E_bond   =        58.4154 E_angle  =        35.6453 
E_dihed  =         0.0000 E_impro  =         1.2017 E_vdwl   =      -875.2573 
E_coul   =        -5.6906 E_long   =         0.0000 Press    =        -3.4026 
---------------- Step     6300 ----- CPU =      0.1563 (sec) ----------------
TotEng   =      -653.2105 KinEng   =       136.7413 Temp     =        11.0700 
PotEng   =      -789.9518 E_bond   =        53.5056 E_angle  =        34.9158 
E_dihed  =         0.0000 E_impro  =         1.4553 E_vdwl   =      -873.7821 
E_coul   =        -6.0463 E_long   =         0.0000 Press    =        -1.8945 
---------------- Step     6350 ----- CPU =      0.1719 (sec) ----------------
TotEng   =      -638.1714 KinEng   =       147.8348 Temp     =        11.9680 
PotEng   =      -786.0062 E_bond   =        61.3553 E_angle  =        34.7117 
E_dihed  =         0.0000 E_impro  =         1.2195 E_vdwl   =      -876.7111 
E_coul   =        -6.5818 E_long   =         0.0000 Press    =        -2.2181 
---------------- Step     6400 ----- CPU =      0.2032 (sec) ----------------
TotEng   =      -630.9453 KinEng   =       160.3744 Temp     =        12.9832 
PotEng   =      -791.3197 E_bond   =        59.2831 E_angle  =        32.9507 
E_dihed  =         0.0000 E_impro  =         1.0306 E_vdwl   =      -877.8487 
E_coul   =        -6.7355 E_long   =         0.0000 Press    =        -3.2658 
---------------- Step     6450 ----- CPU =      0.2344 (sec) ----------------
TotEng   =      -640.1302 KinEng   =       138.8373 Temp     =        11.2396 
PotEng   =      -778.9675 E_bond   =        61.5382 E_angle  =        34.8757 
E_dihed  =         0.0000 E_impro  =         0.7649 E_vdwl   =      -869.9459 
E_coul   =        -6.2004 E_long   =         0.0000 Press    =        -2.6636 
---------------- Step     6500 ----- CPU =      0.2657 (sec) ----------------
TotEng   =      -622.5867 KinEng   =       154.0746 Temp     =        12.4732 
PotEng   =      -776.6613 E_bond   =        61.0036 E_angle  =        34.1148 
E_dihed  =         0.0000 E_impro  =         0.7976 E_vdwl   =      -865.6548 
E_coul   =        -6.9225 E_long   =         0.0000 Press    =        -0.3852 
---------------- Step     6550 ----- CPU =      0.2871 (sec) ----------------
TotEng   =      -653.6541 KinEng   =       128.8911 Temp     =        10.4344 
PotEng   =      -782.5451 E_bond   =        52.3388 E_angle  =        35.7153 
E_dihed  =         0.0000 E_impro  =         0.7227 E_vdwl   =      -864.5999 
E_coul   =        -6.7221 E_long   =         0.0000 Press    =        -2.1138 
---------------- Step     6600 ----- CPU =      0.3028 (sec) ----------------
TotEng   =      -646.1957 KinEng   =       145.0200 Temp     =        11.7402 
PotEng   =      -791.2157 E_bond   =        53.7917 E_angle  =        36.1680 
E_dihed  =         0.0000 E_impro  =         0.8462 E_vdwl   =      -874.9187 
E_coul   =        -7.1029 E_long   =         0.0000 Press    =        -3.5803 
---------------- Step     6650 ----- CPU =      0.3340 (sec) ----------------
TotEng   =      -632.3496 KinEng   =       153.1717 Temp     =        12.4001 
PotEng   =      -785.5214 E_bond   =        54.6174 E_angle  =        38.1918 
E_dihed  =         0.0000 E_impro  =         1.4205 E_vdwl   =      -872.6852 
E_coul   =        -7.0659 E_long   =         0.0000 Press    =        -0.1398 
---------------- Step     6700 ----- CPU =      0.3653 (sec) ----------------
TotEng   =      -627.1559 KinEng   =       149.5883 Temp     =        12.1100 
PotEng   =      -776.7442 E_bond   =        58.2687 E_angle  =        36.0029 
E_dihed  =         0.0000 E_impro  =         0.8443 E_vdwl   =      -865.2826 
E_coul   =        -6.5775 E_long   =         0.0000 Press    =        -0.1975 
---------------- Step     6750 ----- CPU =      0.3809 (sec) ----------------
TotEng   =      -621.7287 KinEng   =       143.6048 Temp     =        11.6256 
PotEng   =      -765.3335 E_bond   =        59.1940 E_angle  =        35.2075 
E_dihed  =         0.0000 E_impro  =         1.5595 E_vdwl   =      -854.1676 
E_coul   =        -7.1270 E_long   =         0.0000 Press    =        -1.9911 
---------------- Step     6800 ----- CPU =      0.4122 (sec) ----------------
TotEng   =      -649.9072 KinEng   =       127.9316 Temp     =        10.3568 
PotEng   =      -777.8388 E_bond   =        56.2928 E_angle  =        34.5807 
E_dihed  =         0.0000 E_impro  =         1.0562 E_vdwl   =      -862.5712 
E_coul   =        -7.1973 E_long   =         0.0000 Press    =        -5.1319 
---------------- Step     6850 ----- CPU =      0.4434 (sec) ----------------
TotEng   =      -621.6731 KinEng   =       157.1921 Temp     =        12.7256 
PotEng   =      -778.8652 E_bond   =        60.5814 E_angle  =        34.9678 
E_dihed  =         0.0000 E_impro  =         1.1926 E_vdwl   =      -868.4532 
E_coul   =        -7.1538 E_long   =         0.0000 Press    =        -3.7821 
---------------- Step     6900 ----- CPU =      0.4747 (sec) ----------------
TotEng   =      -638.7541 KinEng   =       140.2322 Temp     =        11.3526 
PotEng   =      -778.9863 E_bond   =        53.2975 E_angle  =        34.4193 
E_dihed  =         0.0000 E_impro  =         1.0821 E_vdwl   =      -861.0245 
E_coul   =        -6.7606 E_long   =         0.0000 Press    =        -1.8536 
---------------- Step     6950 ----- CPU =      0.5059 (sec) ----------------
TotEng   =      -635.0507 KinEng   =       138.3890 Temp     =        11.2033 
PotEng   =      -773.4398 E_bond   =        62.0924 E_angle  =        34.1952 
E_dihed  =         0.0000 E_impro  =         0.9960 E_vdwl   =      -863.8724 
E_coul   =        -6.8509 E_long   =         0.0000 Press    =        -5.0561 
---------------- Step     7000 ----- CPU =      0.5216 (sec) ----------------
TotEng   =      -635.9332 KinEng   =       139.3471 Temp     =        11.2809 
PotEng   =      -775.2803 E_bond   =        57.2971 E_angle  =        34.8423 
E_dihed  =         0.0000 E_impro  =         1.2381 E_vdwl   =      -862.0689 
E_coul   =        -6.5889 E_long   =         0.0000 Press    =        -6.5787 
Loop time of 0.521564 on 1 procs for 1000 steps with 4145 atoms

Performance: 496.967 ns/day, 0.048 hours/ns, 1917.310 timesteps/s
98.9% CPU use with 1 MPI tasks x 1 OpenMP threads

MPI task timing breakdown:
Section |  min time  |  avg time  |  max time  |%varavg| %total
---------------------------------------------------------------
Pair    | 0.41218    | 0.41218    | 0.41218    |   0.0 | 79.03
Bond    | 0.015618   | 0.015618   | 0.015618   |   0.0 |  2.99
Neigh   | 0.031285   | 0.031285   | 0.031285   |   0.0 |  6.00
Comm    | 0.015596   | 0.015596   | 0.015596   |   0.0 |  2.99
Output  | 0          | 0          | 0          |   0.0 |  0.00
Modify  | 0.015631   | 0.015631   | 0.015631   |   0.0 |  3.00
Other   |            | 0.03126    |            |       |  5.99

Nlocal:        4145.00 ave        4145 max        4145 min
Histogram: 1 0 0 0 0 0 0 0 0 0
Nghost:        2205.00 ave        2205 max        2205 min
Histogram: 1 0 0 0 0 0 0 0 0 0
Neighs:        12781.0 ave       12781 max       12781 min
Histogram: 1 0 0 0 0 0 0 0 0 0

Total # of neighbors = 12781
Ave neighs/atom = 3.0834741
Ave special neighs/atom = 0.32714113
Neighbor list builds = 11
Dangerous builds = 0
if 		"${x} > -40" then "jump SELF break"
next a
jump SELF loop
variable a loop 1000
run 		1000
Per MPI rank memory allocation (min/avg/max) = 9.913 | 9.913 | 9.913 Mbytes
---------------- Step     7000 ----- CPU =      0.0000 (sec) ----------------
TotEng   =      -635.9332 KinEng   =       139.3471 Temp     =        11.2809 
PotEng   =      -775.2803 E_bond   =        57.2971 E_angle  =        34.8423 
E_dihed  =         0.0000 E_impro  =         1.2381 E_vdwl   =      -862.0689 
E_coul   =        -6.5889 E_long   =         0.0000 Press    =        -6.5787 
---------------- Step     7050 ----- CPU =      0.0156 (sec) ----------------
TotEng   =      -618.2319 KinEng   =       151.6430 Temp     =        12.2763 
PotEng   =      -769.8749 E_bond   =        59.2675 E_angle  =        36.1650 
E_dihed  =         0.0000 E_impro  =         1.1622 E_vdwl   =      -859.7994 
E_coul   =        -6.6701 E_long   =         0.0000 Press    =        -2.1617 
---------------- Step     7100 ----- CPU =      0.0312 (sec) ----------------
TotEng   =      -614.5099 KinEng   =       151.5209 Temp     =        12.2664 
PotEng   =      -766.0308 E_bond   =        62.0582 E_angle  =        35.9636 
E_dihed  =         0.0000 E_impro  =         1.1455 E_vdwl   =      -858.8172 
E_coul   =        -6.3810 E_long   =         0.0000 Press    =        -2.8377 
---------------- Step     7150 ----- CPU =      0.0625 (sec) ----------------
TotEng   =      -627.7692 KinEng   =       145.8147 Temp     =        11.8045 
PotEng   =      -773.5840 E_bond   =        62.5773 E_angle  =        37.4730 
E_dihed  =         0.0000 E_impro  =         1.1759 E_vdwl   =      -868.3706 
E_coul   =        -6.4396 E_long   =         0.0000 Press    =        -6.2155 
---------------- Step     7200 ----- CPU =      0.0938 (sec) ----------------
TotEng   =      -622.0330 KinEng   =       146.2518 Temp     =        11.8399 
PotEng   =      -768.2848 E_bond   =        59.5195 E_angle  =        38.6668 
E_dihed  =         0.0000 E_impro  =         2.4837 E_vdwl   =      -862.9970 
E_coul   =        -5.9578 E_long   =         0.0000 Press    =        -5.7807 
---------------- Step     7250 ----- CPU =      0.1250 (sec) ----------------
TotEng   =      -626.7054 KinEng   =       149.3521 Temp     =        12.0909 
PotEng   =      -776.0576 E_bond   =        52.8688 E_angle  =        39.1255 
E_dihed  =         0.0000 E_impro  =         2.5038 E_vdwl   =      -864.3826 
E_coul   =        -6.1731 E_long   =         0.0000 Press    =        -6.3122 
---------------- Step     7300 ----- CPU =      0.1406 (sec) ----------------
TotEng   =      -630.2266 KinEng   =       135.2964 Temp     =        10.9530 
PotEng   =      -765.5231 E_bond   =        56.4589 E_angle  =        39.1271 
E_dihed  =         0.0000 E_impro  =         2.1700 E_vdwl   =      -856.6061 
E_coul   =        -6.6730 E_long   =         0.0000 Press    =        -1.8787 
---------------- Step     7350 ----- CPU =      0.1719 (sec) ----------------
TotEng   =      -622.6594 KinEng   =       136.9334 Temp     =        11.0855 
PotEng   =      -759.5928 E_bond   =        57.5325 E_angle  =        39.3303 
E_dihed  =         0.0000 E_impro  =         2.2765 E_vdwl   =      -852.0057 
E_coul   =        -6.7264 E_long   =         0.0000 Press    =         0.2893 
---------------- Step     7400 ----- CPU =      0.1875 (sec) ----------------
TotEng   =      -611.9827 KinEng   =       149.3276 Temp     =        12.0889 
PotEng   =      -761.3103 E_bond   =        59.2015 E_angle  =        37.9722 
E_dihed  =         0.0000 E_impro  =         2.3862 E_vdwl   =      -854.2099 
E_coul   =        -6.6603 E_long   =         0.0000 Press    =        -1.3156 
---------------- Step     7450 ----- CPU =      0.2187 (sec) ----------------
TotEng   =      -627.5235 KinEng   =       130.4551 Temp     =        10.5611 
PotEng   =      -757.9787 E_bond   =        69.4156 E_angle  =        38.5944 
E_dihed  =         0.0000 E_impro  =         2.6435 E_vdwl   =      -861.5923 
E_coul   =        -7.0398 E_long   =         0.0000 Press    =        -1.7601 
---------------- Step     7500 ----- CPU =      0.2344 (sec) ----------------
TotEng   =      -620.2413 KinEng   =       142.4585 Temp     =        11.5328 
PotEng   =      -762.6997 E_bond   =        68.3033 E_angle  =        39.6177 
E_dihed  =         0.0000 E_impro  =         2.0490 E_vdwl   =      -865.9792 
E_coul   =        -6.6906 E_long   =         0.0000 Press    =        -2.9729 
---------------- Step     7550 ----- CPU =      0.2656 (sec) ----------------
TotEng   =      -621.2726 KinEng   =       142.0629 Temp     =        11.5008 
PotEng   =      -763.3355 E_bond   =        63.2879 E_angle  =        39.1266 
E_dihed  =         0.0000 E_impro  =         1.7457 E_vdwl   =      -860.4707 
E_coul   =        -7.0250 E_long   =         0.0000 Press    =        -3.7569 
---------------- Step     7600 ----- CPU =      0.2969 (sec) ----------------
TotEng   =      -606.3708 KinEng   =       152.4637 Temp     =        12.3428 
PotEng   =      -758.8345 E_bond   =        68.1740 E_angle  =        40.4748 
E_dihed  =         0.0000 E_impro  =         1.8987 E_vdwl   =      -862.2809 
E_coul   =        -7.1012 E_long   =         0.0000 Press    =        -5.5079 
---------------- Step     7650 ----- CPU =      0.3125 (sec) ----------------
TotEng   =      -636.7726 KinEng   =       127.6147 Temp     =        10.3311 
PotEng   =      -764.3873 E_bond   =        67.9192 E_angle  =        39.2863 
E_dihed  =         0.0000 E_impro  =         1.8390 E_vdwl   =      -866.2985 
E_coul   =        -7.1333 E_long   =         0.0000 Press    =        -5.6246 
---------------- Step     7700 ----- CPU =      0.3437 (sec) ----------------
TotEng   =      -620.3731 KinEng   =       145.9603 Temp     =        11.8163 
PotEng   =      -766.3334 E_bond   =        63.2736 E_angle  =        40.4108 
E_dihed  =         0.0000 E_impro  =         2.0563 E_vdwl   =      -864.8257 
E_coul   =        -7.2484 E_long   =         0.0000 Press    =        -2.7589 
---------------- Step     7750 ----- CPU =      0.3594 (sec) ----------------
TotEng   =      -621.4719 KinEng   =       144.8274 Temp     =        11.7246 
PotEng   =      -766.2993 E_bond   =        67.4285 E_angle  =        38.7976 
E_dihed  =         0.0000 E_impro  =         2.5454 E_vdwl   =      -867.8338 
E_coul   =        -7.2370 E_long   =         0.0000 Press    =        -5.5150 
---------------- Step     7800 ----- CPU =      0.3906 (sec) ----------------
TotEng   =      -628.8630 KinEng   =       141.6048 Temp     =        11.4637 
PotEng   =      -770.4678 E_bond   =        62.5314 E_angle  =        40.0551 
E_dihed  =         0.0000 E_impro  =         2.5188 E_vdwl   =      -868.3902 
E_coul   =        -7.1830 E_long   =         0.0000 Press    =        -6.0668 
---------------- Step     7850 ----- CPU =      0.4062 (sec) ----------------
TotEng   =      -644.3972 KinEng   =       140.5915 Temp     =        11.3816 
PotEng   =      -784.9887 E_bond   =        56.6483 E_angle  =        39.4335 
E_dihed  =         0.0000 E_impro  =         2.2020 E_vdwl   =      -876.0518 
E_coul   =        -7.2206 E_long   =         0.0000 Press    =        -6.7680 
---------------- Step     7900 ----- CPU =      0.4375 (sec) ----------------
TotEng   =      -653.2546 KinEng   =       130.2693 Temp     =        10.5460 
PotEng   =      -783.5240 E_bond   =        57.0450 E_angle  =        39.1663 
E_dihed  =         0.0000 E_impro  =         2.3093 E_vdwl   =      -874.5948 
E_coul   =        -7.4497 E_long   =         0.0000 Press    =        -8.1714 
---------------- Step     7950 ----- CPU =      0.4688 (sec) ----------------
TotEng   =      -622.2239 KinEng   =       156.1520 Temp     =        12.6414 
PotEng   =      -778.3759 E_bond   =        61.0211 E_angle  =        40.6850 
E_dihed  =         0.0000 E_impro  =         2.2774 E_vdwl   =      -874.5317 
E_coul   =        -7.8277 E_long   =         0.0000 Press    =        -4.7786 
---------------- Step     8000 ----- CPU =      0.5000 (sec) ----------------
TotEng   =      -622.1413 KinEng   =       136.4843 Temp     =        11.0491 
PotEng   =      -758.6256 E_bond   =        75.5081 E_angle  =        42.6894 
E_dihed  =         0.0000 E_impro  =         1.6457 E_vdwl   =      -871.2818 
E_coul   =        -7.1870 E_long   =         0.0000 Press    =        -4.0957 
Loop time of 0.499968 on 1 procs for 1000 steps with 4145 atoms

Performance: 518.433 ns/day, 0.046 hours/ns, 2000.128 timesteps/s
100.0% CPU use with 1 MPI tasks x 1 OpenMP threads

MPI task timing breakdown:
Section |  min time  |  avg time  |  max time  |%varavg| %total
---------------------------------------------------------------
Pair    | 0.40621    | 0.40621    | 0.40621    |   0.0 | 81.25
Bond    | 0.015629   | 0.015629   | 0.015629   |   0.0 |  3.13
Neigh   | 0.046876   | 0.046876   | 0.046876   |   0.0 |  9.38
Comm    | 0          | 0          | 0          |   0.0 |  0.00
Output  | 0          | 0          | 0          |   0.0 |  0.00
Modify  | 0.031252   | 0.031252   | 0.031252   |   0.0 |  6.25
Other   |            | 0          |            |       |  0.00

Nlocal:        4145.00 ave        4145 max        4145 min
Histogram: 1 0 0 0 0 0 0 0 0 0
Nghost:        2205.00 ave        2205 max        2205 min
Histogram: 1 0 0 0 0 0 0 0 0 0
Neighs:        12724.0 ave       12724 max       12724 min
Histogram: 1 0 0 0 0 0 0 0 0 0

Total # of neighbors = 12724
Ave neighs/atom = 3.0697226
Ave special neighs/atom = 0.32714113
Neighbor list builds = 12
Dangerous builds = 0
if 		"${x} > -40" then "jump SELF break"
next a
jump SELF loop
variable a loop 1000
run 		1000
Per MPI rank memory allocation (min/avg/max) = 9.913 | 9.913 | 9.913 Mbytes
---------------- Step     8000 ----- CPU =      0.0000 (sec) ----------------
TotEng   =      -622.1413 KinEng   =       136.4843 Temp     =        11.0491 
PotEng   =      -758.6256 E_bond   =        75.5081 E_angle  =        42.6894 
[...]
Output  | 0          | 0          | 0          |   0.0 |  0.00
Modify  | 0.00026894 | 0.00026894 | 0.00026894 |   0.0 |  0.05
Other   |            | 0          |            |       |  0.00

Nlocal:        4145.00 ave        4145 max        4145 min
Histogram: 1 0 0 0 0 0 0 0 0 0
Nghost:        2198.00 ave        2198 max        2198 min
Histogram: 1 0 0 0 0 0 0 0 0 0
Neighs:        12881.0 ave       12881 max       12881 min
Histogram: 1 0 0 0 0 0 0 0 0 0

Total # of neighbors = 12881
Ave neighs/atom = 3.1075995
Ave special neighs/atom = 0.32714113
Neighbor list builds = 12
Dangerous builds = 0
if 		"${x} > -40" then "jump SELF break"
next a
jump SELF loop
variable a loop 1000
run 		1000
Per MPI rank memory allocation (min/avg/max) = 9.913 | 9.913 | 9.913 Mbytes
---------------- Step    62000 ----- CPU =      0.0000 (sec) ----------------
TotEng   =      -640.2150 KinEng   =       143.6355 Temp     =        11.6281 
PotEng   =      -783.8505 E_bond   =        57.1302 E_angle  =        41.3988 
E_dihed  =         0.0000 E_impro  =         1.6818 E_vdwl   =      -878.4790 
E_coul   =        -5.5823 E_long   =         0.0000 Press    =         3.4803 
---------------- Step    62050 ----- CPU =      0.0312 (sec) ----------------
TotEng   =      -649.9520 KinEng   =       126.6614 Temp     =        10.2539 
PotEng   =      -776.6134 E_bond   =        61.6768 E_angle  =        42.2218 
E_dihed  =         0.0000 E_impro  =         1.6542 E_vdwl   =      -876.1740 
E_coul   =        -5.9922 E_long   =         0.0000 Press    =         1.8948 
---------------- Step    62100 ----- CPU =      0.0469 (sec) ----------------
TotEng   =      -642.4615 KinEng   =       140.0921 Temp     =        11.3412 
PotEng   =      -782.5536 E_bond   =        58.4980 E_angle  =        42.7638 
E_dihed  =         0.0000 E_impro  =         4.9643 E_vdwl   =      -883.1910 
E_coul   =        -5.5888 E_long   =         0.0000 Press    =        -0.3046 
---------------- Step    62150 ----- CPU =      0.0781 (sec) ----------------
TotEng   =      -637.6070 KinEng   =       135.9658 Temp     =        11.0072 
PotEng   =      -773.5727 E_bond   =        62.9557 E_angle  =        41.8125 
E_dihed  =         0.0000 E_impro  =         5.0128 E_vdwl   =      -877.7166 
E_coul   =        -5.6370 E_long   =         0.0000 Press    =        -0.9761 
---------------- Step    62200 ----- CPU =      0.1094 (sec) ----------------
TotEng   =      -628.5670 KinEng   =       148.1356 Temp     =        11.9924 
PotEng   =      -776.7026 E_bond   =        54.7691 E_angle  =        39.5599 
E_dihed  =         0.0000 E_impro  =         2.8737 E_vdwl   =      -868.3708 
E_coul   =        -5.5345 E_long   =         0.0000 Press    =         1.7783 
---------------- Step    62250 ----- CPU =      0.1250 (sec) ----------------
TotEng   =      -649.8631 KinEng   =       140.1013 Temp     =        11.3420 
PotEng   =      -789.9644 E_bond   =        49.5573 E_angle  =        39.0125 
E_dihed  =         0.0000 E_impro  =         2.4942 E_vdwl   =      -875.3567 
E_coul   =        -5.6716 E_long   =         0.0000 Press    =        -0.1619 
---------------- Step    62300 ----- CPU =      0.1562 (sec) ----------------
TotEng   =      -644.4917 KinEng   =       140.9972 Temp     =        11.4145 
PotEng   =      -785.4889 E_bond   =        49.4911 E_angle  =        36.9714 
E_dihed  =         0.0000 E_impro  =         1.9353 E_vdwl   =      -868.3669 
E_coul   =        -5.5198 E_long   =         0.0000 Press    =         2.1029 
---------------- Step    62350 ----- CPU =      0.1719 (sec) ----------------
TotEng   =      -637.8843 KinEng   =       147.0156 Temp     =        11.9017 
PotEng   =      -784.8998 E_bond   =        53.8027 E_angle  =        36.3730 
E_dihed  =         0.0000 E_impro  =         1.3716 E_vdwl   =      -871.1837 
E_coul   =        -5.2634 E_long   =         0.0000 Press    =         2.3177 
---------------- Step    62400 ----- CPU =      0.2031 (sec) ----------------
TotEng   =      -645.3323 KinEng   =       156.8865 Temp     =        12.7008 
PotEng   =      -802.2188 E_bond   =        49.9304 E_angle  =        37.0156 
E_dihed  =         0.0000 E_impro  =         1.5122 E_vdwl   =      -885.0428 
E_coul   =        -5.6342 E_long   =         0.0000 Press    =         3.5809 
---------------- Step    62450 ----- CPU =      0.2188 (sec) ----------------
TotEng   =      -653.8792 KinEng   =       136.4346 Temp     =        11.0451 
PotEng   =      -790.3138 E_bond   =        57.0714 E_angle  =        37.0916 
E_dihed  =         0.0000 E_impro  =         1.5817 E_vdwl   =      -879.8245 
E_coul   =        -6.2340 E_long   =         0.0000 Press    =         1.0777 
---------------- Step    62500 ----- CPU =      0.2500 (sec) ----------------
TotEng   =      -642.7317 KinEng   =       158.6444 Temp     =        12.8431 
PotEng   =      -801.3761 E_bond   =        51.3689 E_angle  =        37.2985 
E_dihed  =         0.0000 E_impro  =         1.5853 E_vdwl   =      -885.7765 
E_coul   =        -5.8524 E_long   =         0.0000 Press    =         1.2365 
---------------- Step    62550 ----- CPU =      0.2812 (sec) ----------------
TotEng   =      -664.5624 KinEng   =       138.0805 Temp     =        11.1784 
PotEng   =      -802.6429 E_bond   =        52.0354 E_angle  =        36.9751 
E_dihed  =         0.0000 E_impro  =         1.9249 E_vdwl   =      -887.3560 
E_coul   =        -6.2222 E_long   =         0.0000 Press    =        -1.9160 
---------------- Step    62600 ----- CPU =      0.3125 (sec) ----------------
TotEng   =      -653.4627 KinEng   =       136.5228 Temp     =        11.0523 
PotEng   =      -789.9855 E_bond   =        56.9954 E_angle  =        37.4287 
E_dihed  =         0.0000 E_impro  =         1.8495 E_vdwl   =      -880.4113 
E_coul   =        -5.8478 E_long   =         0.0000 Press    =        -1.7774 
---------------- Step    62650 ----- CPU =      0.3437 (sec) ----------------
TotEng   =      -641.1605 KinEng   =       143.8796 Temp     =        11.6478 
PotEng   =      -785.0402 E_bond   =        58.0375 E_angle  =        38.8086 
E_dihed  =         0.0000 E_impro  =         1.7836 E_vdwl   =      -877.8431 
E_coul   =        -5.8267 E_long   =         0.0000 Press    =        -1.6128 
---------------- Step    62700 ----- CPU =      0.3750 (sec) ----------------
TotEng   =      -633.9407 KinEng   =       149.5283 Temp     =        12.1051 
PotEng   =      -783.4690 E_bond   =        63.5778 E_angle  =        39.4053 
E_dihed  =         0.0000 E_impro  =         2.4288 E_vdwl   =      -882.3705 
E_coul   =        -6.5103 E_long   =         0.0000 Press    =        -3.9944 
---------------- Step    62750 ----- CPU =      0.4063 (sec) ----------------
TotEng   =      -624.3084 KinEng   =       160.6237 Temp     =        13.0034 
PotEng   =      -784.9321 E_bond   =        61.2172 E_angle  =        39.9545 
E_dihed  =         0.0000 E_impro  =         1.1392 E_vdwl   =      -880.7171 
E_coul   =        -6.5259 E_long   =         0.0000 Press    =        -1.4709 
---------------- Step    62800 ----- CPU =      0.4375 (sec) ----------------
TotEng   =      -639.2200 KinEng   =       149.4597 Temp     =        12.0996 
PotEng   =      -788.6797 E_bond   =        58.8154 E_angle  =        38.6947 
E_dihed  =         0.0000 E_impro  =         0.8300 E_vdwl   =      -880.0233 
E_coul   =        -6.9966 E_long   =         0.0000 Press    =        -3.6508 
---------------- Step    62850 ----- CPU =      0.4531 (sec) ----------------
TotEng   =      -651.6895 KinEng   =       131.5553 Temp     =        10.6501 
PotEng   =      -783.2449 E_bond   =        60.4693 E_angle  =        37.1260 
E_dihed  =         0.0000 E_impro  =         0.7278 E_vdwl   =      -875.1835 
E_coul   =        -6.3845 E_long   =         0.0000 Press    =        -2.2027 
---------------- Step    62900 ----- CPU =      0.4843 (sec) ----------------
TotEng   =      -647.7465 KinEng   =       139.5023 Temp     =        11.2935 
PotEng   =      -787.2487 E_bond   =        53.7201 E_angle  =        35.5039 
E_dihed  =         0.0000 E_impro  =         1.2555 E_vdwl   =      -870.5815 
E_coul   =        -7.1468 E_long   =         0.0000 Press    =        -0.9870 
---------------- Step    62950 ----- CPU =      0.5156 (sec) ----------------
TotEng   =      -651.5689 KinEng   =       130.8904 Temp     =        10.5963 
PotEng   =      -782.4592 E_bond   =        60.5234 E_angle  =        37.3554 
E_dihed  =         0.0000 E_impro  =         0.5254 E_vdwl   =      -873.6225 
E_coul   =        -7.2408 E_long   =         0.0000 Press    =        -1.4448 
---------------- Step    63000 ----- CPU =      0.5313 (sec) ----------------
TotEng   =      -659.0764 KinEng   =       129.5813 Temp     =        10.4903 
PotEng   =      -788.6577 E_bond   =        60.4272 E_angle  =        38.8128 
E_dihed  =         0.0000 E_impro  =         0.7970 E_vdwl   =      -881.3630 
E_coul   =        -7.3317 E_long   =         0.0000 Press    =        -5.7246 
Loop time of 0.531251 on 1 procs for 1000 steps with 4145 atoms

Performance: 487.905 ns/day, 0.049 hours/ns, 1882.350 timesteps/s
100.0% CPU use with 1 MPI tasks x 1 OpenMP threads

MPI task timing breakdown:
Section |  min time  |  avg time  |  max time  |%varavg| %total
---------------------------------------------------------------
Pair    | 0.40621    | 0.40621    | 0.40621    |   0.0 | 76.46
Bond    | 0.015626   | 0.015626   | 0.015626   |   0.0 |  2.94
Neigh   | 0.031287   | 0.031287   | 0.031287   |   0.0 |  5.89
Comm    | 0.015625   | 0.015625   | 0.015625   |   0.0 |  2.94
Output  | 0.015629   | 0.015629   | 0.015629   |   0.0 |  2.94
Modify  | 0.031284   | 0.031284   | 0.031284   |   0.0 |  5.89
Other   |            | 0.01558    |            |       |  2.93

Nlocal:        4145.00 ave        4145 max        4145 min
Histogram: 1 0 0 0 0 0 0 0 0 0
Nghost:        2198.00 ave        2198 max        2198 min
Histogram: 1 0 0 0 0 0 0 0 0 0
Neighs:        12836.0 ave       12836 max       12836 min
Histogram: 1 0 0 0 0 0 0 0 0 0

Total # of neighbors = 12836
Ave neighs/atom = 3.0967431
Ave special neighs/atom = 0.32714113
Neighbor list builds = 11
Dangerous builds = 0
if 		"${x} > -40" then "jump SELF break"
next a
jump SELF loop
variable a loop 1000
run 		1000
Per MPI rank memory allocation (min/avg/max) = 9.913 | 9.913 | 9.913 Mbytes
---------------- Step    63000 ----- CPU =      0.0000 (sec) ----------------
TotEng   =      -659.0764 KinEng   =       129.5813 Temp     =        10.4903 
PotEng   =      -788.6577 E_bond   =        60.4272 E_angle  =        38.8128 
E_dihed  =         0.0000 E_impro  =         0.7970 E_vdwl   =      -881.3630 
E_coul   =        -7.3317 E_long   =         0.0000 Press    =        -5.7246 
---------------- Step    63050 ----- CPU =      0.0156 (sec) ----------------
TotEng   =      -649.0671 KinEng   =       131.7262 Temp     =        10.6640 
PotEng   =      -780.7933 E_bond   =        61.2190 E_angle  =        38.8987 
E_dihed  =         0.0000 E_impro  =         0.7378 E_vdwl   =      -874.6086 
E_coul   =        -7.0401 E_long   =         0.0000 Press    =        -2.3395 
---------------- Step    63100 ----- CPU =      0.0525 (sec) ----------------
TotEng   =      -655.9749 KinEng   =       129.5855 Temp     =        10.4906 
PotEng   =      -785.5604 E_bond   =        61.0750 E_angle  =        38.1735 
E_dihed  =         0.0000 E_impro  =         0.4897 E_vdwl   =      -878.2146 
E_coul   =        -7.0841 E_long   =         0.0000 Press    =        -4.1785 
---------------- Step    63150 ----- CPU =      0.0838 (sec) ----------------
TotEng   =      -640.2938 KinEng   =       144.8098 Temp     =        11.7231 
PotEng   =      -785.1037 E_bond   =        63.5236 E_angle  =        37.2696 
E_dihed  =         0.0000 E_impro  =         2.6991 E_vdwl   =      -880.7955 
E_coul   =        -7.8005 E_long   =         0.0000 Press    =        -4.4160 
---------------- Step    63200 ----- CPU =      0.1151 (sec) ----------------
TotEng   =      -630.0363 KinEng   =       156.8160 Temp     =        12.6951 
PotEng   =      -786.8523 E_bond   =        57.0702 E_angle  =        36.4728 
E_dihed  =         0.0000 E_impro  =         1.1439 E_vdwl   =      -873.3630 
E_coul   =        -8.1761 E_long   =         0.0000 Press    =        -1.7283 
---------------- Step    63250 ----- CPU =      0.1307 (sec) ----------------
TotEng   =      -639.9817 KinEng   =       144.9836 Temp     =        11.7372 
PotEng   =      -784.9654 E_bond   =        52.7117 E_angle  =        35.5637 
E_dihed  =         0.0000 E_impro  =         0.7677 E_vdwl   =      -865.5598 
E_coul   =        -8.4487 E_long   =         0.0000 Press    =        -1.5558 
---------------- Step    63300 ----- CPU =      0.1619 (sec) ----------------
TotEng   =      -660.9141 KinEng   =       130.4731 Temp     =        10.5625 
PotEng   =      -791.3872 E_bond   =        57.1597 E_angle  =        37.3877 
E_dihed  =         0.0000 E_impro  =         0.6084 E_vdwl   =      -878.4603 
E_coul   =        -8.0827 E_long   =         0.0000 Press    =        -2.1668 
---------------- Step    63350 ----- CPU =      0.1776 (sec) ----------------
TotEng   =      -650.0241 KinEng   =       135.2201 Temp     =        10.9468 
PotEng   =      -785.2441 E_bond   =        49.3137 E_angle  =        37.9556 
E_dihed  =         0.0000 E_impro  =         0.9610 E_vdwl   =      -865.4167 
E_coul   =        -8.0577 E_long   =         0.0000 Press    =        -0.6992 
---------------- Step    63400 ----- CPU =      0.2088 (sec) ----------------
TotEng   =      -646.1057 KinEng   =       142.9627 Temp     =        11.5736 
PotEng   =      -789.0683 E_bond   =        52.4536 E_angle  =        37.2971 
E_dihed  =         0.0000 E_impro  =         0.8155 E_vdwl   =      -871.3505 
E_coul   =        -8.2840 E_long   =         0.0000 Press    =        -2.4478 
---------------- Step    63450 ----- CPU =      0.2401 (sec) ----------------
TotEng   =      -639.2249 KinEng   =       149.8636 Temp     =        12.1323 
PotEng   =      -789.0885 E_bond   =        57.5608 E_angle  =        37.1006 
E_dihed  =         0.0000 E_impro  =         0.8456 E_vdwl   =      -876.4143 
E_coul   =        -8.1811 E_long   =         0.0000 Press    =        -6.4856 
---------------- Step    63500 ----- CPU =      0.2713 (sec) ----------------
TotEng   =      -620.8861 KinEng   =       163.1951 Temp     =        13.2115 
PotEng   =      -784.0812 E_bond   =        54.3768 E_angle  =        37.4185 
E_dihed  =         0.0000 E_impro  =         0.4719 E_vdwl   =      -868.9578 
E_coul   =        -7.3905 E_long   =         0.0000 Press    =        -6.9286 
---------------- Step    63550 ----- CPU =      0.2869 (sec) ----------------
TotEng   =      -645.2500 KinEng   =       131.4382 Temp     =        10.6406 
PotEng   =      -776.6882 E_bond   =        54.2379 E_angle  =        36.9006 
E_dihed  =         0.0000 E_impro  =         0.5381 E_vdwl   =      -860.3931 
E_coul   =        -7.9717 E_long   =         0.0000 Press    =        -4.2581 
---------------- Step    63600 ----- CPU =      0.3182 (sec) ----------------
TotEng   =      -619.8622 KinEng   =       160.9055 Temp     =        13.0262 
PotEng   =      -780.7676 E_bond   =        54.7381 E_angle  =        35.8327 
E_dihed  =         0.0000 E_impro  =         0.8632 E_vdwl   =      -865.2437 
E_coul   =        -6.9580 E_long   =         0.0000 Press    =        -7.4166 
---------------- Step    63650 ----- CPU =      0.3494 (sec) ----------------
TotEng   =      -618.5198 KinEng   =       147.8962 Temp     =        11.9730 
PotEng   =      -766.4160 E_bond   =        63.9242 E_angle  =        35.1784 
E_dihed  =         0.0000 E_impro  =         0.7400 E_vdwl   =      -859.6580 
E_coul   =        -6.6005 E_long   =         0.0000 Press    =        -7.3962 
---------------- Step    63700 ----- CPU =      0.3651 (sec) ----------------
TotEng   =      -626.6731 KinEng   =       154.6216 Temp     =        12.5175 
PotEng   =      -781.2947 E_bond   =        56.7238 E_angle  =        36.0574 
E_dihed  =         0.0000 E_impro  =         2.0747 E_vdwl   =      -868.3011 
E_coul   =        -7.8494 E_long   =         0.0000 Press    =        -7.3154 
---------------- Step    63750 ----- CPU =      0.3963 (sec) ----------------
TotEng   =      -641.7214 KinEng   =       136.1721 Temp     =        11.0239 
PotEng   =      -777.8934 E_bond   =        51.6044 E_angle  =        34.5348 
E_dihed  =         0.0000 E_impro  =         1.3222 E_vdwl   =      -858.5308 
E_coul   =        -6.8241 E_long   =         0.0000 Press    =        -7.7942 
---------------- Step    63800 ----- CPU =      0.4276 (sec) ----------------
TotEng   =      -643.9895 KinEng   =       139.4488 Temp     =        11.2891 
PotEng   =      -783.4384 E_bond   =        49.5493 E_angle  =        32.3876 
E_dihed  =         0.0000 E_impro  =         1.1685 E_vdwl   =      -860.4269 
E_coul   =        -6.1168 E_long   =         0.0000 Press    =        -6.8050 
---------------- Step    63850 ----- CPU =      0.4588 (sec) ----------------
TotEng   =      -640.2745 KinEng   =       140.4067 Temp     =        11.3667 
PotEng   =      -780.6811 E_bond   =        53.6024 E_angle  =        31.3189 
E_dihed  =         0.0000 E_impro  =         0.7450 E_vdwl   =      -860.5231 
E_coul   =        -5.8243 E_long   =         0.0000 Press    =        -8.4581 
---------------- Step    63900 ----- CPU =      0.4744 (sec) ----------------
TotEng   =      -639.7211 KinEng   =       137.4676 Temp     =        11.1287 
PotEng   =      -777.1886 E_bond   =        52.5898 E_angle  =        33.1596 
E_dihed  =         0.0000 E_impro  =         0.9592 E_vdwl   =      -857.9072 
E_coul   =        -5.9899 E_long   =         0.0000 Press    =        -4.1967 
---------------- Step    63950 ----- CPU =      0.5057 (sec) ----------------
TotEng   =      -643.4175 KinEng   =       139.3457 Temp     =        11.2808 
PotEng   =      -782.7632 E_bond   =        52.9837 E_angle  =        31.8992 
E_dihed  =         0.0000 E_impro  =         1.6462 E_vdwl   =      -863.1675 
E_coul   =        -6.1249 E_long   =         0.0000 Press    =        -6.7196 
---------------- Step    64000 ----- CPU =      0.5369 (sec) ----------------
TotEng   =      -633.7256 KinEng   =       138.0562 Temp     =        11.1764 
PotEng   =      -771.7818 E_bond   =        62.8222 E_angle  =        32.0574 
E_dihed  =         0.0000 E_impro  =         1.4591 E_vdwl   =      -861.9262 
E_coul   =        -6.1942 E_long   =         0.0000 Press    =        -5.0431 
Loop time of 0.536941 on 1 procs for 1000 steps with 4145 atoms

Performance: 482.735 ns/day, 0.050 hours/ns, 1862.402 timesteps/s
98.9% CPU use with 1 MPI tasks x 1 OpenMP threads

MPI task timing breakdown:
Section |  min time  |  avg time  |  max time  |%varavg| %total
---------------------------------------------------------------
Pair    | 0.36258    | 0.36258    | 0.36258    |   0.0 | 67.53
Bond    | 0.015625   | 0.015625   | 0.015625   |   0.0 |  2.91
Neigh   | 0.064964   | 0.064964   | 0.064964   |   0.0 | 12.10
Comm    | 0          | 0          | 0          |   0.0 |  0.00
Output  | 0.031284   | 0.031284   | 0.031284   |   0.0 |  5.83
Modify  | 0.04687    | 0.04687    | 0.04687    |   0.0 |  8.73
Other   |            | 0.01562    |            |       |  2.91

Nlocal:        4145.00 ave        4145 max        4145 min
Histogram: 1 0 0 0 0 0 0 0 0 0
Nghost:        2200.00 ave        2200 max        2200 min
Histogram: 1 0 0 0 0 0 0 0 0 0
Neighs:        12775.0 ave       12775 max       12775 min
Histogram: 1 0 0 0 0 0 0 0 0 0

Total # of neighbors = 12775
Ave neighs/atom = 3.0820265
Ave special neighs/atom = 0.32714113
Neighbor list builds = 12
Dangerous builds = 0
if 		"${x} > -40" then "jump SELF break"
jump SELF break
print "ALL DONE"
ALL DONE
Total wall time: 0:00:33
