LAMMPS (27 May 2021)
OMP_NUM_THREADS environment is not set. Defaulting to 1 thread. (src/comm.cpp:98)
  using 1 OpenMP thread(s) per MPI task
# only protein 1hrc

units		real
boundary	p p p
atom_style	full
dielectric 	80

pair_style	lj/cut/coul/debye 7.1e-12 12
bond_style      harmonic
special_bonds 	lj/coul 0.0 1.0 0.0
angle_style     cosine/squared
dihedral_style  charmm
improper_style  harmonic

read_data	data.txt
Reading data file ...
  orthogonal box = (-30.000000 -30.000000 -170.00000) to (30.000000 30.000000 170.00000)
  1 by 1 by 1 MPI processor grid
  reading atoms ...
  161 atoms
  scanning bonds ...
  2 = max bonds/atom
  scanning angles ...
  2 = max angles/atom
  scanning impropers ...
  2 = max impropers/atom
  reading bonds ...
  169 bonds
  reading angles ...
  158 angles
  reading impropers ...
  9 impropers
Finding 1-2 1-3 1-4 neighbors ...
  special bond factors lj:    0        1        0       
  special bond factors coul:  0        1        0       
     3 = max # of 1-2 neighbors
     6 = max # of 1-3 neighbors
    16 = max # of 1-4 neighbors
    15 = max # of special neighbors
  special bonds CPU = 0.001 seconds
  read_data CPU = 0.005 seconds
region 		push block INF INF INF INF -55.0 50.0
group		driver id 1
1 atoms in group driver

velocity	driver set 0 0 0
neighbor	1.1 bin
neigh_modify	delay 5

timestep	3

thermo_style	multi
thermo		500

#minimize 	1.0e-3 1.0e-6 100 1000
fix		1 all nvt temp 298.15 298.15 $(100.0*dt)
fix		1 all nvt temp 298.15 298.15 300
fix		2 all langevin 298.15 298.15 14 12345
fix		3 all addforce 0 0 -100 region push
fix		6 driver setforce 0 0 0

dump 		id all custom 500 output.lammpstrj id type xu yu zu		#vmd/pymol
run 		800000
Neighbor list info ...
  update every 1 steps, delay 5 steps, check yes
  max neighbors/atom: 2000, page size: 100000
  master list distance cutoff = 6.364
  ghost atom cutoff = 6.364
  binsize = 3.182, bins = 19 19 107
  1 neighbor lists, perpetual/occasional/extra = 1 0 0
  (1) pair lj/cut/coul/debye, perpetual
      attributes: half, newton on
      pair build: half/bin/newton
      stencil: half/bin/3d
      bin: standard
WARNING: Communication cutoff 6.363999999999999 is shorter than a bond length based estimate of 10.1. This may lead to errors. (src/comm.cpp:730)
WARNING: Bond/angle/dihedral extent > half of periodic box length (src/domain.cpp:934)
Per MPI rank memory allocation (min/avg/max) = 9.757 | 9.757 | 9.757 Mbytes
---------------- Step        0 ----- CPU =      0.0000 (sec) ----------------
TotEng   =    131737.7452 KinEng   =         0.0000 Temp     =         0.0000 
PotEng   =    131737.7452 E_bond   =      6054.5089 E_angle  =       346.9235 
E_dihed  =         0.0000 E_impro  =       105.1709 E_vdwl   =    125229.3898 
E_coul   =         1.7521 E_long   =         0.0000 Press    =     28159.0926 
---------------- Step      500 ----- CPU =      0.0240 (sec) ----------------
TotEng   =     51554.2450 KinEng   =         0.0000 Temp     =         0.0000 
PotEng   =     51554.2450 E_bond   =     50258.0075 E_angle  =       288.0920 
E_dihed  =         0.0000 E_impro  =         7.8671 E_vdwl   =       996.3166 
E_coul   =         3.9618 E_long   =         0.0000 Press    =     -1723.0747 
---------------- Step     1000 ----- CPU =      0.0480 (sec) ----------------
TotEng   =     32903.1478 KinEng   =         0.0000 Temp     =         0.0000 
PotEng   =     32903.1478 E_bond   =     31750.1999 E_angle  =       246.1556 
E_dihed  =         0.0000 E_impro  =         7.8592 E_vdwl   =       896.2107 
E_coul   =         2.7224 E_long   =         0.0000 Press    =      -994.9932 
---------------- Step     1500 ----- CPU =      0.0740 (sec) ----------------
TotEng   =     16961.8013 KinEng   =         0.0000 Temp     =         0.0000 
PotEng   =     16961.8013 E_bond   =     16009.2167 E_angle  =       226.3715 
E_dihed  =         0.0000 E_impro  =         4.8106 E_vdwl   =       720.3356 
E_coul   =         1.0669 E_long   =         0.0000 Press    =      -402.5426 
---------------- Step     2000 ----- CPU =      0.0990 (sec) ----------------
TotEng   =     10228.9100 KinEng   =         0.0000 Temp     =         0.0000 
PotEng   =     10228.9100 E_bond   =      9198.3726 E_angle  =       214.3732 
E_dihed  =         0.0000 E_impro  =         3.6919 E_vdwl   =       810.5805 
E_coul   =         1.8918 E_long   =         0.0000 Press    =       -96.8078 
---------------- Step     2500 ----- CPU =      0.1240 (sec) ----------------
TotEng   =      6767.8464 KinEng   =         0.0000 Temp     =         0.0000 
PotEng   =      6767.8464 E_bond   =      5776.3682 E_angle  =       205.7970 
E_dihed  =         0.0000 E_impro  =         3.5430 E_vdwl   =       780.2416 
E_coul   =         1.8965 E_long   =         0.0000 Press    =        46.3460 
---------------- Step     3000 ----- CPU =      0.1490 (sec) ----------------
TotEng   =      4986.6472 KinEng   =         0.0000 Temp     =         0.0000 
PotEng   =      4986.6472 E_bond   =      3986.3308 E_angle  =       200.7407 
E_dihed  =         0.0000 E_impro  =         4.9153 E_vdwl   =       792.0084 
E_coul   =         2.6521 E_long   =         0.0000 Press    =       133.9748 
---------------- Step     3500 ----- CPU =      0.1740 (sec) ----------------
TotEng   =      3938.8014 KinEng   =         0.0000 Temp     =         0.0000 
PotEng   =      3938.8014 E_bond   =      2959.6392 E_angle  =       198.1270 
E_dihed  =         0.0000 E_impro  =         6.8468 E_vdwl   =       771.5705 
E_coul   =         2.6179 E_long   =         0.0000 Press    =       188.1317 
---------------- Step     4000 ----- CPU =      0.2010 (sec) ----------------
TotEng   =      3424.4040 KinEng   =         0.0000 Temp     =         0.0000 
PotEng   =      3424.4040 E_bond   =      2414.9963 E_angle  =       199.9596 
E_dihed  =         0.0000 E_impro  =         6.4872 E_vdwl   =       801.1823 
E_coul   =         1.7787 E_long   =         0.0000 Press    =       242.3572 
---------------- Step     4500 ----- CPU =      0.2280 (sec) ----------------
TotEng   =      3198.7554 KinEng   =         0.0000 Temp     =         0.0000 
PotEng   =      3198.7554 E_bond   =      2121.8292 E_angle  =       199.4671 
E_dihed  =         0.0000 E_impro  =         1.9857 E_vdwl   =       873.0183 
E_coul   =         2.4552 E_long   =         0.0000 Press    =       298.4093 
---------------- Step     5000 ----- CPU =      0.2560 (sec) ----------------
TotEng   =      3076.4069 KinEng   =         0.0000 Temp     =         0.0000 
PotEng   =      3076.4069 E_bond   =      1933.7968 E_angle  =       199.4488 
E_dihed  =         0.0000 E_impro  =         1.2744 E_vdwl   =       941.9415 
E_coul   =        -0.0545 E_long   =         0.0000 Press    =       338.9116 
---------------- Step     5500 ----- CPU =      0.2850 (sec) ----------------
TotEng   =      2926.7001 KinEng   =         0.0000 Temp     =         0.0000 
PotEng   =      2926.7001 E_bond   =      1806.3437 E_angle  =       196.1347 
E_dihed  =         0.0000 E_impro  =         1.4222 E_vdwl   =       922.9555 
E_coul   =        -0.1560 E_long   =         0.0000 Press    =       355.6482 
---------------- Step     6000 ----- CPU =      0.3150 (sec) ----------------
TotEng   =      2837.9789 KinEng   =         0.0000 Temp     =         0.0000 
PotEng   =      2837.9789 E_bond   =      1735.6271 E_angle  =       192.2078 
E_dihed  =         0.0000 E_impro  =         1.1946 E_vdwl   =       910.7895 
E_coul   =        -1.8400 E_long   =         0.0000 Press    =       366.5612 
---------------- Step     6500 ----- CPU =      0.3450 (sec) ----------------
TotEng   =      2764.0412 KinEng   =         0.0000 Temp     =         0.0000 
PotEng   =      2764.0412 E_bond   =      1692.2673 E_angle  =       185.6089 
E_dihed  =         0.0000 E_impro  =         2.1428 E_vdwl   =       885.9041 
E_coul   =        -1.8820 E_long   =         0.0000 Press    =       366.4483 
---------------- Step     7000 ----- CPU =      0.3760 (sec) ----------------
TotEng   =      2553.7501 KinEng   =         0.0000 Temp     =         0.0000 
PotEng   =      2553.7501 E_bond   =      1599.2242 E_angle  =       175.8622 
E_dihed  =         0.0000 E_impro  =         2.6426 E_vdwl   =       778.6198 
E_coul   =        -2.5987 E_long   =         0.0000 Press    =       338.4993 
---------------- Step     7500 ----- CPU =      0.4060 (sec) ----------------
TotEng   =      2396.0184 KinEng   =         0.0000 Temp     =         0.0000 
PotEng   =      2396.0184 E_bond   =      1507.8440 E_angle  =       174.0473 
E_dihed  =         0.0000 E_impro  =         3.2920 E_vdwl   =       711.8504 
E_coul   =        -1.0152 E_long   =         0.0000 Press    =       319.2146 
---------------- Step     8000 ----- CPU =      0.4360 (sec) ----------------
TotEng   =      2236.2746 KinEng   =         0.0000 Temp     =         0.0000 
PotEng   =      2236.2746 E_bond   =      1433.4356 E_angle  =       173.0477 
E_dihed  =         0.0000 E_impro  =         3.6474 E_vdwl   =       627.9769 
E_coul   =        -1.8330 E_long   =         0.0000 Press    =       296.1480 
---------------- Step     8500 ----- CPU =      0.4650 (sec) ----------------
TotEng   =      2087.9884 KinEng   =         0.0000 Temp     =         0.0000 
PotEng   =      2087.9884 E_bond   =      1385.0073 E_angle  =       169.8276 
E_dihed  =         0.0000 E_impro  =         3.5001 E_vdwl   =       531.4714 
E_coul   =        -1.8179 E_long   =         0.0000 Press    =       265.9952 
---------------- Step     9000 ----- CPU =      0.4940 (sec) ----------------
TotEng   =      1948.2679 KinEng   =         0.0000 Temp     =         0.0000 
PotEng   =      1948.2679 E_bond   =      1345.7825 E_angle  =       166.1594 
E_dihed  =         0.0000 E_impro  =         3.5219 E_vdwl   =       433.8262 
E_coul   =        -1.0221 E_long   =         0.0000 Press    =       235.4757 
---------------- Step     9500 ----- CPU =      0.5230 (sec) ----------------
TotEng   =      1856.9209 KinEng   =         0.0000 Temp     =         0.0000 
PotEng   =      1856.9209 E_bond   =      1306.0002 E_angle  =       164.6902 
E_dihed  =         0.0000 E_impro  =         3.6615 E_vdwl   =       383.5596 
E_coul   =        -0.9906 E_long   =         0.0000 Press    =       216.5408 
---------------- Step    10000 ----- CPU =      0.5510 (sec) ----------------
TotEng   =      1751.0731 KinEng   =         0.0000 Temp     =         0.0000 
PotEng   =      1751.0731 E_bond   =      1259.1197 E_angle  =       163.2014 
E_dihed  =         0.0000 E_impro  =         3.8761 E_vdwl   =       325.8212 
E_coul   =        -0.9453 E_long   =         0.0000 Press    =       198.4696 
---------------- Step    10500 ----- CPU =      0.5790 (sec) ----------------
TotEng   =      1643.0230 KinEng   =         0.0000 Temp     =         0.0000 
PotEng   =      1643.0230 E_bond   =      1212.1177 E_angle  =       161.9232 
E_dihed  =         0.0000 E_impro  =         3.6102 E_vdwl   =       267.1371 
E_coul   =        -1.7652 E_long   =         0.0000 Press    =       176.8255 
---------------- Step    11000 ----- CPU =      0.6080 (sec) ----------------
TotEng   =      1510.5942 KinEng   =         0.0000 Temp     =         0.0000 
PotEng   =      1510.5942 E_bond   =      1162.7348 E_angle  =       160.2926 
E_dihed  =         0.0000 E_impro  =         3.2664 E_vdwl   =       185.2770 
E_coul   =        -0.9766 E_long   =         0.0000 Press    =       153.3416 
---------------- Step    11500 ----- CPU =      0.6350 (sec) ----------------
TotEng   =      1410.7961 KinEng   =         0.0000 Temp     =         0.0000 
PotEng   =      1410.7961 E_bond   =      1122.3959 E_angle  =       157.9538 
E_dihed  =         0.0000 E_impro  =         3.5662 E_vdwl   =       129.4227 
E_coul   =        -2.5425 E_long   =         0.0000 Press    =       134.3748 
---------------- Step    12000 ----- CPU =      0.6620 (sec) ----------------
TotEng   =      1331.1951 KinEng   =         0.0000 Temp     =         0.0000 
PotEng   =      1331.1951 E_bond   =      1083.8648 E_angle  =       157.3230 
E_dihed  =         0.0000 E_impro  =         4.3050 E_vdwl   =        88.2474 
E_coul   =        -2.5452 E_long   =         0.0000 Press    =       120.9460 
---------------- Step    12500 ----- CPU =      0.6890 (sec) ----------------
TotEng   =      1264.7367 KinEng   =         0.0000 Temp     =         0.0000 
PotEng   =      1264.7367 E_bond   =      1049.1605 E_angle  =       156.5157 
E_dihed  =         0.0000 E_impro  =         4.5032 E_vdwl   =        57.0826 
E_coul   =        -2.5253 E_long   =         0.0000 Press    =       109.1739 
---------------- Step    13000 ----- CPU =      0.7154 (sec) ----------------
TotEng   =      1202.5130 KinEng   =         0.0000 Temp     =         0.0000 
PotEng   =      1202.5130 E_bond   =      1013.5964 E_angle  =       153.2108 
E_dihed  =         0.0000 E_impro  =         4.4322 E_vdwl   =        33.0085 
E_coul   =        -1.7348 E_long   =         0.0000 Press    =       101.7851 
---------------- Step    13500 ----- CPU =      0.7434 (sec) ----------------
TotEng   =      1144.4982 KinEng   =         0.0000 Temp     =         0.0000 
PotEng   =      1144.4982 E_bond   =       978.7674 E_angle  =       151.3237 
E_dihed  =         0.0000 E_impro  =         3.9871 E_vdwl   =        12.9391 
E_coul   =        -2.5191 E_long   =         0.0000 Press    =        95.8610 
---------------- Step    14000 ----- CPU =      0.7705 (sec) ----------------
TotEng   =      1087.1609 KinEng   =         0.0000 Temp     =         0.0000 
PotEng   =      1087.1609 E_bond   =       938.9351 E_angle  =       149.7466 
E_dihed  =         0.0000 E_impro  =         4.2121 E_vdwl   =        -3.2236 
E_coul   =        -2.5093 E_long   =         0.0000 Press    =        90.8900 
---------------- Step    14500 ----- CPU =      0.7955 (sec) ----------------
TotEng   =      1040.9516 KinEng   =         0.0000 Temp     =         0.0000 
PotEng   =      1040.9516 E_bond   =       905.5692 E_angle  =       148.7065 
E_dihed  =         0.0000 E_impro  =         4.0025 E_vdwl   =       -14.8520 
E_coul   =        -2.4746 E_long   =         0.0000 Press    =        86.1626 
---------------- Step    15000 ----- CPU =      0.8215 (sec) ----------------
TotEng   =       986.8013 KinEng   =         0.0000 Temp     =         0.0000 
PotEng   =       986.8013 E_bond   =       866.4015 E_angle  =       147.4875 
E_dihed  =         0.0000 E_impro  =         3.7467 E_vdwl   =       -28.3607 
E_coul   =        -2.4736 E_long   =         0.0000 Press    =        82.8477 
---------------- Step    15500 ----- CPU =      0.8475 (sec) ----------------
TotEng   =       950.8721 KinEng   =         0.0000 Temp     =         0.0000 
PotEng   =       950.8721 E_bond   =       832.5317 E_angle  =       145.6877 
E_dihed  =         0.0000 E_impro  =         4.1097 E_vdwl   =       -28.9814 
E_coul   =        -2.4754 E_long   =         0.0000 Press    =        81.6927 
---------------- Step    16000 ----- CPU =      0.8735 (sec) ----------------
TotEng   =       913.0491 KinEng   =         0.0000 Temp     =         0.0000 
PotEng   =       913.0491 E_bond   =       804.0735 E_angle  =       145.1561 
E_dihed  =         0.0000 E_impro  =         5.0124 E_vdwl   =       -38.7289 
E_coul   =        -2.4640 E_long   =         0.0000 Press    =        79.2044 
---------------- Step    16500 ----- CPU =      0.8985 (sec) ----------------
TotEng   =       881.4895 KinEng   =         0.0000 Temp     =         0.0000 
PotEng   =       881.4895 E_bond   =       777.9494 E_angle  =       144.2236 
E_dihed  =         0.0000 E_impro  =         3.8182 E_vdwl   =       -42.0088 
E_coul   =        -2.4929 E_long   =         0.0000 Press    =        76.4968 
---------------- Step    17000 ----- CPU =      0.9244 (sec) ----------------
TotEng   =       843.3417 KinEng   =         0.0000 Temp     =         0.0000 
PotEng   =       843.3417 E_bond   =       759.3936 E_angle  =       143.4296 
E_dihed  =         0.0000 E_impro  =         4.2409 E_vdwl   =       -61.2264 
E_coul   =        -2.4961 E_long   =         0.0000 Press    =        71.9790 
---------------- Step    17500 ----- CPU =      0.9495 (sec) ----------------
TotEng   =       822.6944 KinEng   =         0.0000 Temp     =         0.0000 
PotEng   =       822.6944 E_bond   =       734.8842 E_angle  =       142.6168 
E_dihed  =         0.0000 E_impro  =         4.6161 E_vdwl   =       -56.9464 
E_coul   =        -2.4762 E_long   =         0.0000 Press    =        70.9806 
---------------- Step    18000 ----- CPU =      0.9745 (sec) ----------------
TotEng   =       795.8321 KinEng   =         0.0000 Temp     =         0.0000 
PotEng   =       795.8321 E_bond   =       717.1104 E_angle  =       142.3351 
E_dihed  =         0.0000 E_impro  =         5.4221 E_vdwl   =       -66.5744 
E_coul   =        -2.4611 E_long   =         0.0000 Press    =        68.1682 
---------------- Step    18500 ----- CPU =      0.9995 (sec) ----------------
TotEng   =       775.7884 KinEng   =         0.0000 Temp     =         0.0000 
PotEng   =       775.7884 E_bond   =       698.3155 E_angle  =       140.0708 
E_dihed  =         0.0000 E_impro  =         5.9500 E_vdwl   =       -66.9326 
E_coul   =        -1.6153 E_long   =         0.0000 Press    =        67.0450 
---------------- Step    19000 ----- CPU =      1.0254 (sec) ----------------
TotEng   =       755.3325 KinEng   =         0.0000 Temp     =         0.0000 
PotEng   =       755.3325 E_bond   =       679.7129 E_angle  =       139.5049 
E_dihed  =         0.0000 E_impro  =         5.2758 E_vdwl   =       -67.5394 
E_coul   =        -1.6218 E_long   =         0.0000 Press    =        64.6774 
---------------- Step    19500 ----- CPU =      1.0514 (sec) ----------------
TotEng   =       735.1460 KinEng   =         0.0000 Temp     =         0.0000 
PotEng   =       735.1460 E_bond   =       663.1700 E_angle  =       138.3266 
E_dihed  =         0.0000 E_impro  =         5.2944 E_vdwl   =       -70.0291 
E_coul   =        -1.6160 E_long   =         0.0000 Press    =        62.9010 
---------------- Step    20000 ----- CPU =      1.0765 (sec) ----------------
TotEng   =       717.3300 KinEng   =         0.0000 Temp     =         0.0000 
PotEng   =       717.3300 E_bond   =       645.2525 E_angle  =       137.4852 
E_dihed  =         0.0000 E_impro  =         4.9889 E_vdwl   =       -68.7703 
E_coul   =        -1.6262 E_long   =         0.0000 Press    =        63.2312 
---------------- Step    20500 ----- CPU =      1.1014 (sec) ----------------
TotEng   =       692.7867 KinEng   =         0.0000 Temp     =         0.0000 
PotEng   =       692.7867 E_bond   =       629.6031 E_angle  =       135.7665 
E_dihed  =         0.0000 E_impro  =         5.0964 E_vdwl   =       -75.2743 
E_coul   =        -2.4050 E_long   =         0.0000 Press    =        61.9536 
---------------- Step    21000 ----- CPU =      1.1255 (sec) ----------------
TotEng   =       671.6036 KinEng   =         0.0000 Temp     =         0.0000 
PotEng   =       671.6036 E_bond   =       611.9921 E_angle  =       135.2295 
E_dihed  =         0.0000 E_impro  =         5.3968 E_vdwl   =       -79.4014 
E_coul   =        -1.6135 E_long   =         0.0000 Press    =        60.5135 
---------------- Step    21500 ----- CPU =      1.1494 (sec) ----------------
TotEng   =       648.7329 KinEng   =         0.0000 Temp     =         0.0000 
PotEng   =       648.7329 E_bond   =       597.9144 E_angle  =       135.1244 
E_dihed  =         0.0000 E_impro  =         5.7416 E_vdwl   =       -88.4242 
E_coul   =        -1.6232 E_long   =         0.0000 Press    =        57.2639 
---------------- Step    22000 ----- CPU =      1.1735 (sec) ----------------
TotEng   =       635.3979 KinEng   =         0.0000 Temp     =         0.0000 
PotEng   =       635.3979 E_bond   =       581.7517 E_angle  =       133.7721 
E_dihed  =         0.0000 E_impro  =         5.5073 E_vdwl   =       -83.2098 
E_coul   =        -2.4233 E_long   =         0.0000 Press    =        57.1344 
---------------- Step    22500 ----- CPU =      1.1974 (sec) ----------------
TotEng   =       618.4494 KinEng   =         0.0000 Temp     =         0.0000 
PotEng   =       618.4494 E_bond   =       572.2872 E_angle  =       132.3891 
E_dihed  =         0.0000 E_impro  =         5.0074 E_vdwl   =       -88.8486 
E_coul   =        -2.3857 E_long   =         0.0000 Press    =        54.7053 
---------------- Step    23000 ----- CPU =      1.2204 (sec) ----------------
TotEng   =       601.1415 KinEng   =         0.0000 Temp     =         0.0000 
PotEng   =       601.1415 E_bond   =       560.8955 E_angle  =       132.3168 
E_dihed  =         0.0000 E_impro  =         5.2746 E_vdwl   =       -94.9229 
E_coul   =        -2.4225 E_long   =         0.0000 Press    =        52.6314 
---------------- Step    23500 ----- CPU =      1.2444 (sec) ----------------
TotEng   =       582.2682 KinEng   =         0.0000 Temp     =         0.0000 
PotEng   =       582.2682 E_bond   =       546.4177 E_angle  =       132.7348 
E_dihed  =         0.0000 E_impro  =         5.6582 E_vdwl   =      -100.8855 
E_coul   =        -1.6570 E_long   =         0.0000 Press    =        51.1545 
---------------- Step    24000 ----- CPU =      1.2685 (sec) ----------------
TotEng   =       563.7473 KinEng   =         0.0000 Temp     =         0.0000 
PotEng   =       563.7473 E_bond   =       533.3782 E_angle  =       132.6202 
E_dihed  =         0.0000 E_impro  =         6.0737 E_vdwl   =      -105.8660 
E_coul   =        -2.4588 E_long   =         0.0000 Press    =        50.5471 
---------------- Step    24500 ----- CPU =      1.2925 (sec) ----------------
TotEng   =       548.9992 KinEng   =         0.0000 Temp     =         0.0000 
PotEng   =       548.9992 E_bond   =       515.7800 E_angle  =       131.6712 
E_dihed  =         0.0000 E_impro  =         6.0814 E_vdwl   =      -102.8487 
E_coul   =        -1.6846 E_long   =         0.0000 Press    =        51.4312 
---------------- Step    25000 ----- CPU =      1.3165 (sec) ----------------
TotEng   =       532.1328 KinEng   =         0.0000 Temp     =         0.0000 
PotEng   =       532.1328 E_bond   =       502.4416 E_angle  =       131.2960 
E_dihed  =         0.0000 E_impro  =         5.8640 E_vdwl   =      -105.0032 
E_coul   =        -2.4656 E_long   =         0.0000 Press    =        51.4131 
---------------- Step    25500 ----- CPU =      1.3395 (sec) ----------------
TotEng   =       516.8873 KinEng   =         0.0000 Temp     =         0.0000 
PotEng   =       516.8873 E_bond   =       493.7738 E_angle  =       130.9388 
E_dihed  =         0.0000 E_impro  =         5.4895 E_vdwl   =      -110.8384 
E_coul   =        -2.4764 E_long   =         0.0000 Press    =        49.2170 
---------------- Step    26000 ----- CPU =      1.3635 (sec) ----------------
TotEng   =       494.1768 KinEng   =         0.0000 Temp     =         0.0000 
PotEng   =       494.1768 E_bond   =       482.6073 E_angle  =       130.8279 
E_dihed  =         0.0000 E_impro  =         5.0575 E_vdwl   =      -121.8638 
E_coul   =        -2.4521 E_long   =         0.0000 Press    =        47.4822 
---------------- Step    26500 ----- CPU =      1.3865 (sec) ----------------
TotEng   =       479.3338 KinEng   =         0.0000 Temp     =         0.0000 
PotEng   =       479.3338 E_bond   =       475.6446 E_angle  =       129.1949 
E_dihed  =         0.0000 E_impro  =         5.2952 E_vdwl   =      -129.1240 
E_coul   =        -1.6769 E_long   =         0.0000 Press    =        45.7705 
---------------- Step    27000 ----- CPU =      1.4105 (sec) ----------------
TotEng   =       465.2946 KinEng   =         0.0000 Temp     =         0.0000 
PotEng   =       465.2946 E_bond   =       465.0959 E_angle  =       128.0781 
E_dihed  =         0.0000 E_impro  =         5.9723 E_vdwl   =      -132.9685 
E_coul   =        -0.8832 E_long   =         0.0000 Press    =        43.9621 
---------------- Step    27500 ----- CPU =      1.4335 (sec) ----------------
TotEng   =       450.2414 KinEng   =         0.0000 Temp     =         0.0000 
PotEng   =       450.2414 E_bond   =       457.4821 E_angle  =       126.3090 
E_dihed  =         0.0000 E_impro  =         5.5498 E_vdwl   =      -137.4298 
E_coul   =        -1.6697 E_long   =         0.0000 Press    =        43.1785 
---------------- Step    28000 ----- CPU =      1.4565 (sec) ----------------
TotEng   =       442.5408 KinEng   =         0.0000 Temp     =         0.0000 
PotEng   =       442.5408 E_bond   =       449.8734 E_angle  =       125.2535 
E_dihed  =         0.0000 E_impro  =         5.4561 E_vdwl   =      -136.3580 
E_coul   =        -1.6841 E_long   =         0.0000 Press    =        42.3276 
---------------- Step    28500 ----- CPU =      1.4815 (sec) ----------------
TotEng   =       420.7219 KinEng   =         0.0000 Temp     =         0.0000 
PotEng   =       420.7219 E_bond   =       438.0274 E_angle  =       123.7979 
E_dihed  =         0.0000 E_impro  =         5.3807 E_vdwl   =      -145.5957 
E_coul   =        -0.8884 E_long   =         0.0000 Press    =        42.7058 
---------------- Step    29000 ----- CPU =      1.5045 (sec) ----------------
TotEng   =       404.7212 KinEng   =         0.0000 Temp     =         0.0000 
PotEng   =       404.7212 E_bond   =       430.6483 E_angle  =       122.7246 
E_dihed  =         0.0000 E_impro  =         5.5623 E_vdwl   =      -152.5539 
E_coul   =        -1.6602 E_long   =         0.0000 Press    =        40.9382 
---------------- Step    29500 ----- CPU =      1.5275 (sec) ----------------
TotEng   =       395.4182 KinEng   =         0.0000 Temp     =         0.0000 
PotEng   =       395.4182 E_bond   =       421.7509 E_angle  =       122.3504 
E_dihed  =         0.0000 E_impro  =         4.6097 E_vdwl   =      -152.4318 
E_coul   =        -0.8610 E_long   =         0.0000 Press    =        41.6979 
---------------- Step    30000 ----- CPU =      1.5515 (sec) ----------------
TotEng   =       389.1984 KinEng   =         0.0000 Temp     =         0.0000 
PotEng   =       389.1984 E_bond   =       415.8462 E_angle  =       121.3744 
E_dihed  =         0.0000 E_impro  =         4.3966 E_vdwl   =      -151.5317 
E_coul   =        -0.8872 E_long   =         0.0000 Press    =        40.7903 
---------------- Step    30500 ----- CPU =      1.5754 (sec) ----------------
TotEng   =       375.9290 KinEng   =         0.0000 Temp     =         0.0000 
PotEng   =       375.9290 E_bond   =       408.3450 E_angle  =       120.7749 
E_dihed  =         0.0000 E_impro  =         4.2644 E_vdwl   =      -155.7502 
E_coul   =        -1.7051 E_long   =         0.0000 Press    =        40.0661 
---------------- Step    31000 ----- CPU =      1.5994 (sec) ----------------
TotEng   =       362.9216 KinEng   =         0.0000 Temp     =         0.0000 
PotEng   =       362.9216 E_bond   =       399.4629 E_angle  =       120.3260 
E_dihed  =         0.0000 E_impro  =         4.4046 E_vdwl   =      -160.3599 
E_coul   =        -0.9120 E_long   =         0.0000 Press    =        39.8533 
---------------- Step    31500 ----- CPU =      1.6235 (sec) ----------------
TotEng   =       357.0425 KinEng   =         0.0000 Temp     =         0.0000 
PotEng   =       357.0425 E_bond   =       392.9088 E_angle  =       119.1314 
E_dihed  =         0.0000 E_impro  =         4.4519 E_vdwl   =      -157.7667 
E_coul   =        -1.6828 E_long   =         0.0000 Press    =        40.0679 
---------------- Step    32000 ----- CPU =      1.6465 (sec) ----------------
TotEng   =       349.0280 KinEng   =         0.0000 Temp     =         0.0000 
PotEng   =       349.0280 E_bond   =       390.9352 E_angle  =       118.6248 
E_dihed  =         0.0000 E_impro  =         4.0723 E_vdwl   =      -162.1472 
E_coul   =        -2.4572 E_long   =         0.0000 Press    =        38.1547 
---------------- Step    32500 ----- CPU =      1.6714 (sec) ----------------
TotEng   =       342.8389 KinEng   =         0.0000 Temp     =         0.0000 
PotEng   =       342.8389 E_bond   =       385.6293 E_angle  =       117.2239 
E_dihed  =         0.0000 E_impro  =         4.1133 E_vdwl   =      -162.4430 
E_coul   =        -1.6847 E_long   =         0.0000 Press    =        37.8478 
---------------- Step    33000 ----- CPU =      1.6944 (sec) ----------------
TotEng   =       341.0855 KinEng   =         0.0000 Temp     =         0.0000 
PotEng   =       341.0855 E_bond   =       378.9589 E_angle  =       116.2033 
E_dihed  =         0.0000 E_impro  =         4.4569 E_vdwl   =      -156.8351 
E_coul   =        -1.6985 E_long   =         0.0000 Press    =        37.1947 
---------------- Step    33500 ----- CPU =      1.7174 (sec) ----------------
TotEng   =       341.8828 KinEng   =         0.0000 Temp     =         0.0000 
PotEng   =       341.8828 E_bond   =       373.7196 E_angle  =       115.1606 
E_dihed  =         0.0000 E_impro  =         4.6814 E_vdwl   =      -149.9689 
E_coul   =        -1.7099 E_long   =         0.0000 Press    =        37.6267 
---------------- Step    34000 ----- CPU =      1.7405 (sec) ----------------
TotEng   =       329.9854 KinEng   =         0.0000 Temp     =         0.0000 
PotEng   =       329.9854 E_bond   =       367.3145 E_angle  =       115.0912 
E_dihed  =         0.0000 E_impro  =         4.5946 E_vdwl   =      -155.3045 
E_coul   =        -1.7104 E_long   =         0.0000 Press    =        36.8367 
---------------- Step    34500 ----- CPU =      1.7635 (sec) ----------------
TotEng   =       330.3731 KinEng   =         0.0000 Temp     =         0.0000 
PotEng   =       330.3731 E_bond   =       363.8726 E_angle  =       114.1007 
E_dihed  =         0.0000 E_impro  =         4.6218 E_vdwl   =      -150.5292 
E_coul   =        -1.6929 E_long   =         0.0000 Press    =        35.5574 
---------------- Step    35000 ----- CPU =      1.7865 (sec) ----------------
TotEng   =       323.5814 KinEng   =         0.0000 Temp     =         0.0000 
PotEng   =       323.5814 E_bond   =       356.6601 E_angle  =       114.3698 
E_dihed  =         0.0000 E_impro  =         4.6406 E_vdwl   =      -150.3826 
E_coul   =        -1.7065 E_long   =         0.0000 Press    =        36.7098 
---------------- Step    35500 ----- CPU =      1.8085 (sec) ----------------
TotEng   =       314.9260 KinEng   =         0.0000 Temp     =         0.0000 
PotEng   =       314.9260 E_bond   =       353.0942 E_angle  =       114.3395 
E_dihed  =         0.0000 E_impro  =         4.8273 E_vdwl   =      -155.6479 
E_coul   =        -1.6871 E_long   =         0.0000 Press    =        34.8170 
---------------- Step    36000 ----- CPU =      1.8315 (sec) ----------------
TotEng   =       308.6985 KinEng   =         0.0000 Temp     =         0.0000 
PotEng   =       308.6985 E_bond   =       346.0481 E_angle  =       114.8553 
E_dihed  =         0.0000 E_impro  =         4.7014 E_vdwl   =      -155.2056 
E_coul   =        -1.7007 E_long   =         0.0000 Press    =        35.2789 
---------------- Step    36500 ----- CPU =      1.8535 (sec) ----------------
TotEng   =       299.7570 KinEng   =         0.0000 Temp     =         0.0000 
PotEng   =       299.7570 E_bond   =       347.1793 E_angle  =       114.9325 
E_dihed  =         0.0000 E_impro  =         4.7536 E_vdwl   =      -165.4026 
E_coul   =        -1.7057 E_long   =         0.0000 Press    =        32.5385 
---------------- Step    37000 ----- CPU =      1.8764 (sec) ----------------
TotEng   =       297.8852 KinEng   =         0.0000 Temp     =         0.0000 
PotEng   =       297.8852 E_bond   =       343.7765 E_angle  =       113.9809 
E_dihed  =         0.0000 E_impro  =         4.5314 E_vdwl   =      -162.6908 
E_coul   =        -1.7128 E_long   =         0.0000 Press    =        31.8239 
---------------- Step    37500 ----- CPU =      1.8995 (sec) ----------------
TotEng   =       291.1695 KinEng   =         0.0000 Temp     =         0.0000 
PotEng   =       291.1695 E_bond   =       335.9741 E_angle  =       112.7722 
E_dihed  =         0.0000 E_impro  =         4.5265 E_vdwl   =      -160.3904 
E_coul   =        -1.7128 E_long   =         0.0000 Press    =        32.9176 
---------------- Step    38000 ----- CPU =      1.9215 (sec) ----------------
TotEng   =       289.1201 KinEng   =         0.0000 Temp     =         0.0000 
PotEng   =       289.1201 E_bond   =       330.1870 E_angle  =       113.2839 
E_dihed  =         0.0000 E_impro  =         4.3117 E_vdwl   =      -156.9606 
E_coul   =        -1.7019 E_long   =         0.0000 Press    =        32.9181 
---------------- Step    38500 ----- CPU =      1.9435 (sec) ----------------
TotEng   =       283.8175 KinEng   =         0.0000 Temp     =         0.0000 
PotEng   =       283.8175 E_bond   =       326.3724 E_angle  =       112.0180 
E_dihed  =         0.0000 E_impro  =         3.8480 E_vdwl   =      -156.7194 
E_coul   =        -1.7014 E_long   =         0.0000 Press    =        32.2150 
---------------- Step    39000 ----- CPU =      1.9665 (sec) ----------------
TotEng   =       279.0833 KinEng   =         0.0000 Temp     =         0.0000 
PotEng   =       279.0833 E_bond   =       323.1197 E_angle  =       112.2411 
E_dihed  =         0.0000 E_impro  =         3.8223 E_vdwl   =      -158.4170 
E_coul   =        -1.6829 E_long   =         0.0000 Press    =        30.7876 
---------------- Step    39500 ----- CPU =      1.9885 (sec) ----------------
TotEng   =       277.7181 KinEng   =         0.0000 Temp     =         0.0000 
PotEng   =       277.7181 E_bond   =       321.3440 E_angle  =       111.4785 
E_dihed  =         0.0000 E_impro  =         3.7984 E_vdwl   =      -157.2201 
E_coul   =        -1.6827 E_long   =         0.0000 Press    =        29.4958 
---------------- Step    40000 ----- CPU =      2.0105 (sec) ----------------
TotEng   =       271.4382 KinEng   =         0.0000 Temp     =         0.0000 
PotEng   =       271.4382 E_bond   =       317.5478 E_angle  =       110.2990 
E_dihed  =         0.0000 E_impro  =         4.2244 E_vdwl   =      -158.9478 
E_coul   =        -1.6853 E_long   =         0.0000 Press    =        29.0493 
---------------- Step    40500 ----- CPU =      2.0325 (sec) ----------------
TotEng   =       267.7263 KinEng   =         0.0000 Temp     =         0.0000 
PotEng   =       267.7263 E_bond   =       310.3985 E_angle  =       110.0687 
E_dihed  =         0.0000 E_impro  =         4.5374 E_vdwl   =      -156.3800 
E_coul   =        -0.8984 E_long   =         0.0000 Press    =        30.2655 
---------------- Step    41000 ----- CPU =      2.0554 (sec) ----------------
TotEng   =       256.9150 KinEng   =         0.0000 Temp     =         0.0000 
PotEng   =       256.9150 E_bond   =       306.2483 E_angle  =       109.2752 
E_dihed  =         0.0000 E_impro  =         4.5806 E_vdwl   =      -161.5272 
E_coul   =        -1.6618 E_long   =         0.0000 Press    =        30.2450 
---------------- Step    41500 ----- CPU =      2.0775 (sec) ----------------
TotEng   =       253.3550 KinEng   =         0.0000 Temp     =         0.0000 
PotEng   =       253.3550 E_bond   =       302.6686 E_angle  =       109.3599 
E_dihed  =         0.0000 E_impro  =         4.7337 E_vdwl   =      -160.9311 
E_coul   =        -2.4761 E_long   =         0.0000 Press    =        30.2578 
---------------- Step    42000 ----- CPU =      2.0995 (sec) ----------------
TotEng   =       243.1644 KinEng   =         0.0000 Temp     =         0.0000 
PotEng   =       243.1644 E_bond   =       301.1955 E_angle  =       109.4012 
E_dihed  =         0.0000 E_impro  =         4.7505 E_vdwl   =      -169.7020 
E_coul   =        -2.4807 E_long   =         0.0000 Press    =        28.5140 
---------------- Step    42500 ----- CPU =      2.1225 (sec) ----------------
TotEng   =       246.8428 KinEng   =         0.0000 Temp     =         0.0000 
PotEng   =       246.8428 E_bond   =       294.5555 E_angle  =       108.9037 
E_dihed  =         0.0000 E_impro  =         4.7963 E_vdwl   =      -159.6942 
E_coul   =        -1.7185 E_long   =         0.0000 Press    =        29.3658 
---------------- Step    43000 ----- CPU =      2.1445 (sec) ----------------
TotEng   =       244.3822 KinEng   =         0.0000 Temp     =         0.0000 
PotEng   =       244.3822 E_bond   =       291.0937 E_angle  =       109.1876 
E_dihed  =         0.0000 E_impro  =         4.6617 E_vdwl   =      -158.8419 
E_coul   =        -1.7189 E_long   =         0.0000 Press    =        28.8596 
---------------- Step    43500 ----- CPU =      2.1655 (sec) ----------------
TotEng   =       243.9870 KinEng   =         0.0000 Temp     =         0.0000 
PotEng   =       243.9870 E_bond   =       288.8325 E_angle  =       108.0262 
E_dihed  =         0.0000 E_impro  =         4.3953 E_vdwl   =      -155.5521 
E_coul   =        -1.7149 E_long   =         0.0000 Press    =        28.3501 
---------------- Step    44000 ----- CPU =      2.1875 (sec) ----------------
TotEng   =       228.4877 KinEng   =         0.0000 Temp     =         0.0000 
PotEng   =       228.4877 E_bond   =       286.8216 E_angle  =       108.0533 
E_dihed  =         0.0000 E_impro  =         4.5770 E_vdwl   =      -168.4453 
E_coul   =        -2.5188 E_long   =         0.0000 Press    =        27.2659 
---------------- Step    44500 ----- CPU =      2.2099 (sec) ----------------
TotEng   =       228.2367 KinEng   =         0.0000 Temp     =         0.0000 
PotEng   =       228.2367 E_bond   =       283.7470 E_angle  =       107.2611 
E_dihed  =         0.0000 E_impro  =         4.0381 E_vdwl   =      -165.0691 
E_coul   =        -1.7403 E_long   =         0.0000 Press    =        27.1549 
---------------- Step    45000 ----- CPU =      2.2319 (sec) ----------------
TotEng   =       230.5489 KinEng   =         0.0000 Temp     =         0.0000 
PotEng   =       230.5489 E_bond   =       283.8367 E_angle  =       106.7443 
E_dihed  =         0.0000 E_impro  =         4.0955 E_vdwl   =      -162.3955 
E_coul   =        -1.7322 E_long   =         0.0000 Press    =        27.0647 
---------------- Step    45500 ----- CPU =      2.2539 (sec) ----------------
TotEng   =       221.7253 KinEng   =         0.0000 Temp     =         0.0000 
PotEng   =       221.7253 E_bond   =       279.5333 E_angle  =       105.4612 
E_dihed  =         0.0000 E_impro  =         4.1171 E_vdwl   =      -165.6661 
E_coul   =        -1.7202 E_long   =         0.0000 Press    =        27.2936 
---------------- Step    46000 ----- CPU =      2.2749 (sec) ----------------
TotEng   =       218.5443 KinEng   =         0.0000 Temp     =         0.0000 
PotEng   =       218.5443 E_bond   =       275.4935 E_angle  =       104.8674 
E_dihed  =         0.0000 E_impro  =         3.9098 E_vdwl   =      -163.9919 
E_coul   =        -1.7345 E_long   =         0.0000 Press    =        27.1054 
---------------- Step    46500 ----- CPU =      2.2969 (sec) ----------------
TotEng   =       206.8876 KinEng   =         0.0000 Temp     =         0.0000 
PotEng   =       206.8876 E_bond   =       275.0991 E_angle  =       105.2566 
E_dihed  =         0.0000 E_impro  =         3.8741 E_vdwl   =      -175.6294 
E_coul   =        -1.7129 E_long   =         0.0000 Press    =        25.8361 
---------------- Step    47000 ----- CPU =      2.3179 (sec) ----------------
TotEng   =       210.3280 KinEng   =         0.0000 Temp     =         0.0000 
PotEng   =       210.3280 E_bond   =       272.7944 E_angle  =       104.4945 
E_dihed  =         0.0000 E_impro  =         4.1999 E_vdwl   =      -169.4586 
E_coul   =        -1.7021 E_long   =         0.0000 Press    =        26.3925 
---------------- Step    47500 ----- CPU =      2.3399 (sec) ----------------
TotEng   =       206.1369 KinEng   =         0.0000 Temp     =         0.0000 
PotEng   =       206.1369 E_bond   =       266.0696 E_angle  =       103.2231 
E_dihed  =         0.0000 E_impro  =         4.1745 E_vdwl   =      -165.6382 
E_coul   =        -1.6921 E_long   =         0.0000 Press    =        27.7394 
---------------- Step    48000 ----- CPU =      2.3609 (sec) ----------------
TotEng   =       205.1523 KinEng   =         0.0000 Temp     =         0.0000 
PotEng   =       205.1523 E_bond   =       263.9336 E_angle  =       102.3170 
E_dihed  =         0.0000 E_impro  =         4.0960 E_vdwl   =      -164.3122 
E_coul   =        -0.8820 E_long   =         0.0000 Press    =        27.9297 
---------------- Step    48500 ----- CPU =      2.3829 (sec) ----------------
TotEng   =       202.9859 KinEng   =         0.0000 Temp     =         0.0000 
PotEng   =       202.9859 E_bond   =       262.5829 E_angle  =       102.9010 
E_dihed  =         0.0000 E_impro  =         3.9568 E_vdwl   =      -164.8045 
E_coul   =        -1.6503 E_long   =         0.0000 Press    =        27.1757 
---------------- Step    49000 ----- CPU =      2.4039 (sec) ----------------
TotEng   =       202.7865 KinEng   =         0.0000 Temp     =         0.0000 
PotEng   =       202.7865 E_bond   =       258.9904 E_angle  =       102.5448 
E_dihed  =         0.0000 E_impro  =         3.7589 E_vdwl   =      -162.4406 
E_coul   =        -0.0670 E_long   =         0.0000 Press    =        27.5240 
---------------- Step    49500 ----- CPU =      2.4259 (sec) ----------------
TotEng   =       194.7969 KinEng   =         0.0000 Temp     =         0.0000 
PotEng   =       194.7969 E_bond   =       255.9643 E_angle  =       102.0852 
E_dihed  =         0.0000 E_impro  =         4.0307 E_vdwl   =      -167.2129 
E_coul   =        -0.0704 E_long   =         0.0000 Press    =        27.6556 
---------------- Step    50000 ----- CPU =      2.4469 (sec) ----------------
TotEng   =       184.5870 KinEng   =         0.0000 Temp     =         0.0000 
PotEng   =       184.5870 E_bond   =       254.3138 E_angle  =       101.3041 
E_dihed  =         0.0000 E_impro  =         3.8426 E_vdwl   =      -173.9796 
E_coul   =        -0.8939 E_long   =         0.0000 Press    =        27.2327 
---------------- Step    50500 ----- CPU =      2.4689 (sec) ----------------
TotEng   =       183.8469 KinEng   =         0.0000 Temp     =         0.0000 
PotEng   =       183.8469 E_bond   =       252.0392 E_angle  =       101.7108 
E_dihed  =         0.0000 E_impro  =         3.6501 E_vdwl   =      -171.8600 
E_coul   =        -1.6932 E_long   =         0.0000 Press    =        27.4657 
---------------- Step    51000 ----- CPU =      2.4909 (sec) ----------------
TotEng   =       184.0550 KinEng   =         0.0000 Temp     =         0.0000 
PotEng   =       184.0550 E_bond   =       251.1685 E_angle  =       101.8483 
E_dihed  =         0.0000 E_impro  =         3.8254 E_vdwl   =      -171.9046 
E_coul   =        -0.8825 E_long   =         0.0000 Press    =        26.3644 
---------------- Step    51500 ----- CPU =      2.5139 (sec) ----------------
TotEng   =       184.0971 KinEng   =         0.0000 Temp     =         0.0000 
PotEng   =       184.0971 E_bond   =       251.0161 E_angle  =       101.8865 
E_dihed  =         0.0000 E_impro  =         3.9659 E_vdwl   =      -172.6924 
E_coul   =        -0.0790 E_long   =         0.0000 Press    =        24.4441 
---------------- Step    52000 ----- CPU =      2.5359 (sec) ----------------
TotEng   =       184.4112 KinEng   =         0.0000 Temp     =         0.0000 
PotEng   =       184.4112 E_bond   =       249.3743 E_angle  =       100.5985 
E_dihed  =         0.0000 E_impro  =         3.6883 E_vdwl   =      -169.1638 
E_coul   =        -0.0860 E_long   =         0.0000 Press    =        25.0651 
---------------- Step    52500 ----- CPU =      2.5569 (sec) ----------------
TotEng   =       180.1851 KinEng   =         0.0000 Temp     =         0.0000 
PotEng   =       180.1851 E_bond   =       247.6674 E_angle  =       100.0995 
E_dihed  =         0.0000 E_impro  =         3.7720 E_vdwl   =      -170.4599 
E_coul   =        -0.8939 E_long   =         0.0000 Press    =        25.1044 
---------------- Step    53000 ----- CPU =      2.5789 (sec) ----------------
TotEng   =       181.0538 KinEng   =         0.0000 Temp     =         0.0000 
PotEng   =       181.0538 E_bond   =       246.7777 E_angle  =        99.1749 
E_dihed  =         0.0000 E_impro  =         3.5522 E_vdwl   =      -168.3527 
E_coul   =        -0.0983 E_long   =         0.0000 Press    =        25.0962 
---------------- Step    53500 ----- CPU =      2.6009 (sec) ----------------
TotEng   =       181.8142 KinEng   =         0.0000 Temp     =         0.0000 
PotEng   =       181.8142 E_bond   =       242.2016 E_angle  =        99.0353 
E_dihed  =         0.0000 E_impro  =         3.3268 E_vdwl   =      -162.6558 
E_coul   =        -0.0937 E_long   =         0.0000 Press    =        25.5334 
---------------- Step    54000 ----- CPU =      2.6219 (sec) ----------------
TotEng   =       183.3942 KinEng   =         0.0000 Temp     =         0.0000 
PotEng   =       183.3942 E_bond   =       241.8756 E_angle  =        99.5954 
E_dihed  =         0.0000 E_impro  =         3.1351 E_vdwl   =      -160.3140 
E_coul   =        -0.8979 E_long   =         0.0000 Press    =        24.1177 
---------------- Step    54500 ----- CPU =      2.6429 (sec) ----------------
TotEng   =       178.3675 KinEng   =         0.0000 Temp     =         0.0000 
PotEng   =       178.3675 E_bond   =       240.0681 E_angle  =        99.4093 
E_dihed  =         0.0000 E_impro  =         3.2486 E_vdwl   =      -164.2619 
E_coul   =        -0.0965 E_long   =         0.0000 Press    =        24.3292 
---------------- Step    55000 ----- CPU =      2.6639 (sec) ----------------
TotEng   =       177.5356 KinEng   =         0.0000 Temp     =         0.0000 
PotEng   =       177.5356 E_bond   =       239.3276 E_angle  =        98.0220 
E_dihed  =         0.0000 E_impro  =         3.2340 E_vdwl   =      -162.9511 
E_coul   =        -0.0969 E_long   =         0.0000 Press    =        23.7823 
---------------- Step    55500 ----- CPU =      2.6849 (sec) ----------------
TotEng   =       170.6075 KinEng   =         0.0000 Temp     =         0.0000 
PotEng   =       170.6075 E_bond   =       237.8173 E_angle  =        97.9697 
E_dihed  =         0.0000 E_impro  =         3.5799 E_vdwl   =      -168.6667 
E_coul   =        -0.0929 E_long   =         0.0000 Press    =        23.1503 
---------------- Step    56000 ----- CPU =      2.7059 (sec) ----------------
TotEng   =       173.5808 KinEng   =         0.0000 Temp     =         0.0000 
PotEng   =       173.5808 E_bond   =       235.6406 E_angle  =        96.6045 
E_dihed  =         0.0000 E_impro  =         3.3382 E_vdwl   =      -161.9125 
E_coul   =        -0.0900 E_long   =         0.0000 Press    =        23.0673 
---------------- Step    56500 ----- CPU =      2.7269 (sec) ----------------
TotEng   =       170.8100 KinEng   =         0.0000 Temp     =         0.0000 
PotEng   =       170.8100 E_bond   =       233.9901 E_angle  =        96.2689 
E_dihed  =         0.0000 E_impro  =         3.2377 E_vdwl   =      -162.6112 
E_coul   =        -0.0755 E_long   =         0.0000 Press    =        22.7137 
---------------- Step    57000 ----- CPU =      2.7479 (sec) ----------------
TotEng   =       164.6907 KinEng   =         0.0000 Temp     =         0.0000 
PotEng   =       164.6907 E_bond   =       233.1201 E_angle  =        95.9727 
E_dihed  =         0.0000 E_impro  =         2.9494 E_vdwl   =      -166.4862 
E_coul   =        -0.8653 E_long   =         0.0000 Press    =        21.4506 
---------------- Step    57500 ----- CPU =      2.7689 (sec) ----------------
TotEng   =       157.8636 KinEng   =         0.0000 Temp     =         0.0000 
PotEng   =       157.8636 E_bond   =       229.5396 E_angle  =        96.0826 
E_dihed  =         0.0000 E_impro  =         2.7908 E_vdwl   =      -168.8790 
E_coul   =        -1.6704 E_long   =         0.0000 Press    =        22.3811 
---------------- Step    58000 ----- CPU =      2.7899 (sec) ----------------
TotEng   =       157.3658 KinEng   =         0.0000 Temp     =         0.0000 
PotEng   =       157.3658 E_bond   =       230.7754 E_angle  =        95.9011 
E_dihed  =         0.0000 E_impro  =         2.9168 E_vdwl   =      -170.5407 
E_coul   =        -1.6867 E_long   =         0.0000 Press    =        21.4864 
---------------- Step    58500 ----- CPU =      2.8119 (sec) ----------------
TotEng   =       165.4261 KinEng   =         0.0000 Temp     =         0.0000 
PotEng   =       165.4261 E_bond   =       226.6216 E_angle  =        94.9588 
E_dihed  =         0.0000 E_impro  =         3.2469 E_vdwl   =      -158.5331 
E_coul   =        -0.8680 E_long   =         0.0000 Press    =        22.0313 
---------------- Step    59000 ----- CPU =      2.8329 (sec) ----------------
TotEng   =       149.8546 KinEng   =         0.0000 Temp     =         0.0000 
PotEng   =       149.8546 E_bond   =       227.3257 E_angle  =        93.3736 
E_dihed  =         0.0000 E_impro  =         2.9624 E_vdwl   =      -172.1319 
E_coul   =        -1.6752 E_long   =         0.0000 Press    =        22.0233 
---------------- Step    59500 ----- CPU =      2.8539 (sec) ----------------
TotEng   =       145.0646 KinEng   =         0.0000 Temp     =         0.0000 
PotEng   =       145.0646 E_bond   =       221.5284 E_angle  =        92.9418 
E_dihed  =         0.0000 E_impro  =         2.8528 E_vdwl   =      -170.5785 
E_coul   =        -1.6800 E_long   =         0.0000 Press    =        23.6527 
---------------- Step    60000 ----- CPU =      2.8749 (sec) ----------------
TotEng   =       140.2300 KinEng   =         0.0000 Temp     =         0.0000 
PotEng   =       140.2300 E_bond   =       219.7659 E_angle  =        93.0722 
E_dihed  =         0.0000 E_impro  =         2.9079 E_vdwl   =      -174.6505 
E_coul   =        -0.8654 E_long   =         0.0000 Press    =        22.3248 
---------------- Step    60500 ----- CPU =      2.8959 (sec) ----------------
TotEng   =       142.2751 KinEng   =         0.0000 Temp     =         0.0000 
PotEng   =       142.2751 E_bond   =       218.7456 E_angle  =        92.1095 
E_dihed  =         0.0000 E_impro  =         2.9804 E_vdwl   =      -170.6915 
E_coul   =        -0.8689 E_long   =         0.0000 Press    =        22.6445 
---------------- Step    61000 ----- CPU =      2.9169 (sec) ----------------
TotEng   =       138.8417 KinEng   =         0.0000 Temp     =         0.0000 
PotEng   =       138.8417 E_bond   =       216.2608 E_angle  =        92.6459 
E_dihed  =         0.0000 E_impro  =         3.1971 E_vdwl   =      -173.1942 
E_coul   =        -0.0679 E_long   =         0.0000 Press    =        22.3131 
---------------- Step    61500 ----- CPU =      2.9379 (sec) ----------------
TotEng   =       129.8380 KinEng   =         0.0000 Temp     =         0.0000 
PotEng   =       129.8380 E_bond   =       212.7736 E_angle  =        92.5151 
E_dihed  =         0.0000 E_impro  =         3.0194 E_vdwl   =      -178.3945 
E_coul   =        -0.0756 E_long   =         0.0000 Press    =        23.6210 
---------------- Step    62000 ----- CPU =      2.9589 (sec) ----------------
TotEng   =       125.1935 KinEng   =         0.0000 Temp     =         0.0000 
PotEng   =       125.1935 E_bond   =       211.9455 E_angle  =        91.9812 
E_dihed  =         0.0000 E_impro  =         2.7595 E_vdwl   =      -181.4515 
E_coul   =        -0.0412 E_long   =         0.0000 Press    =        23.3940 
---------------- Step    62500 ----- CPU =      2.9799 (sec) ----------------
TotEng   =       126.5921 KinEng   =         0.0000 Temp     =         0.0000 
PotEng   =       126.5921 E_bond   =       209.1940 E_angle  =        91.4426 
E_dihed  =         0.0000 E_impro  =         2.7568 E_vdwl   =      -176.7494 
E_coul   =        -0.0519 E_long   =         0.0000 Press    =        22.9089 
---------------- Step    63000 ----- CPU =      3.0009 (sec) ----------------
TotEng   =       122.6543 KinEng   =         0.0000 Temp     =         0.0000 
PotEng   =       122.6543 E_bond   =       207.7575 E_angle  =        92.7989 
E_dihed  =         0.0000 E_impro  =         2.8140 E_vdwl   =      -180.6530 
E_coul   =        -0.0631 E_long   =         0.0000 Press    =        21.2749 
---------------- Step    63500 ----- CPU =      3.0229 (sec) ----------------
TotEng   =       119.4830 KinEng   =         0.0000 Temp     =         0.0000 
PotEng   =       119.4830 E_bond   =       207.3717 E_angle  =        92.2783 
E_dihed  =         0.0000 E_impro  =         3.0833 E_vdwl   =      -183.1720 
E_coul   =        -0.0783 E_long   =         0.0000 Press    =        20.0242 
---------------- Step    64000 ----- CPU =      3.0439 (sec) ----------------
TotEng   =       117.2379 KinEng   =         0.0000 Temp     =         0.0000 
PotEng   =       117.2379 E_bond   =       207.5504 E_angle  =        91.5166 
E_dihed  =         0.0000 E_impro  =         3.0555 E_vdwl   =      -184.8019 
E_coul   =        -0.0828 E_long   =         0.0000 Press    =        19.0388 
---------------- Step    64500 ----- CPU =      3.0649 (sec) ----------------
TotEng   =       121.7566 KinEng   =         0.0000 Temp     =         0.0000 
PotEng   =       121.7566 E_bond   =       205.1097 E_angle  =        92.1461 
E_dihed  =         0.0000 E_impro  =         2.9369 E_vdwl   =      -178.3260 
E_coul   =        -0.1102 E_long   =         0.0000 Press    =        19.7708 
---------------- Step    65000 ----- CPU =      3.0859 (sec) ----------------
TotEng   =       123.0814 KinEng   =         0.0000 Temp     =         0.0000 
PotEng   =       123.0814 E_bond   =       205.3967 E_angle  =        91.3430 
E_dihed  =         0.0000 E_impro  =         2.7986 E_vdwl   =      -175.5806 
E_coul   =        -0.8763 E_long   =         0.0000 Press    =        17.9553 
---------------- Step    65500 ----- CPU =      3.1069 (sec) ----------------
TotEng   =       121.1961 KinEng   =         0.0000 Temp     =         0.0000 
PotEng   =       121.1961 E_bond   =       202.1036 E_angle  =        91.6148 
E_dihed  =         0.0000 E_impro  =         2.6836 E_vdwl   =      -174.3292 
E_coul   =        -0.8768 E_long   =         0.0000 Press    =        19.4015 
---------------- Step    66000 ----- CPU =      3.1279 (sec) ----------------
TotEng   =       116.0337 KinEng   =         0.0000 Temp     =         0.0000 
PotEng   =       116.0337 E_bond   =       201.9265 E_angle  =        90.1507 
E_dihed  =         0.0000 E_impro  =         2.6813 E_vdwl   =      -178.6475 
E_coul   =        -0.0773 E_long   =         0.0000 Press    =        18.9303 
---------------- Step    66500 ----- CPU =      3.1489 (sec) ----------------
TotEng   =       123.8327 KinEng   =         0.0000 Temp     =         0.0000 
PotEng   =       123.8327 E_bond   =       200.8258 E_angle  =        89.8024 
E_dihed  =         0.0000 E_impro  =         2.5642 E_vdwl   =      -169.2900 
E_coul   =        -0.0697 E_long   =         0.0000 Press    =        18.8024 
---------------- Step    67000 ----- CPU =      3.1689 (sec) ----------------
TotEng   =       119.4911 KinEng   =         0.0000 Temp     =         0.0000 
PotEng   =       119.4911 E_bond   =       196.7090 E_angle  =        91.0992 
E_dihed  =         0.0000 E_impro  =         2.3930 E_vdwl   =      -170.6534 
E_coul   =        -0.0566 E_long   =         0.0000 Press    =        19.8695 
---------------- Step    67500 ----- CPU =      3.1889 (sec) ----------------
TotEng   =       122.6407 KinEng   =         0.0000 Temp     =         0.0000 
PotEng   =       122.6407 E_bond   =       196.0429 E_angle  =        90.6936 
E_dihed  =         0.0000 E_impro  =         2.5538 E_vdwl   =      -166.5808 
E_coul   =        -0.0687 E_long   =         0.0000 Press    =        19.2962 
---------------- Step    68000 ----- CPU =      3.2099 (sec) ----------------
TotEng   =       124.4223 KinEng   =         0.0000 Temp     =         0.0000 
PotEng   =       124.4223 E_bond   =       197.1430 E_angle  =        89.0337 
E_dihed  =         0.0000 E_impro  =         2.5981 E_vdwl   =      -164.3085 
E_coul   =        -0.0440 E_long   =         0.0000 Press    =        19.1750 
---------------- Step    68500 ----- CPU =      3.2309 (sec) ----------------
TotEng   =       114.7601 KinEng   =         0.0000 Temp     =         0.0000 
PotEng   =       114.7601 E_bond   =       194.2806 E_angle  =        88.9755 
E_dihed  =         0.0000 E_impro  =         2.4976 E_vdwl   =      -170.9331 
E_coul   =        -0.0606 E_long   =         0.0000 Press    =        19.9510 
---------------- Step    69000 ----- CPU =      3.2509 (sec) ----------------
TotEng   =       109.6899 KinEng   =         0.0000 Temp     =         0.0000 
PotEng   =       109.6899 E_bond   =       193.1277 E_angle  =        88.1755 
E_dihed  =         0.0000 E_impro  =         2.4479 E_vdwl   =      -174.0023 
E_coul   =        -0.0590 E_long   =         0.0000 Press    =        19.7961 
---------------- Step    69500 ----- CPU =      3.2719 (sec) ----------------
TotEng   =       105.8914 KinEng   =         0.0000 Temp     =         0.0000 
PotEng   =       105.8914 E_bond   =       190.9100 E_angle  =        88.0000 
E_dihed  =         0.0000 E_impro  =         2.3993 E_vdwl   =      -175.3703 
E_coul   =        -0.0475 E_long   =         0.0000 Press    =        20.5324 
---------------- Step    70000 ----- CPU =      3.2929 (sec) ----------------
TotEng   =       102.9762 KinEng   =         0.0000 Temp     =         0.0000 
PotEng   =       102.9762 E_bond   =       190.7307 E_angle  =        87.0134 
E_dihed  =         0.0000 E_impro  =         2.4694 E_vdwl   =      -178.0037 
E_coul   =         0.7664 E_long   =         0.0000 Press    =        19.3960 
---------------- Step    70500 ----- CPU =      3.3129 (sec) ----------------
TotEng   =        98.6470 KinEng   =         0.0000 Temp     =         0.0000 
PotEng   =        98.6470 E_bond   =       190.6592 E_angle  =        86.9307 
E_dihed  =         0.0000 E_impro  =         2.2887 E_vdwl   =      -182.0018 
E_coul   =         0.7702 E_long   =         0.0000 Press    =        18.7344 
---------------- Step    71000 ----- CPU =      3.3339 (sec) ----------------
TotEng   =        98.8761 KinEng   =         0.0000 Temp     =         0.0000 
PotEng   =        98.8761 E_bond   =       190.0715 E_angle  =        85.8516 
E_dihed  =         0.0000 E_impro  =         2.3295 E_vdwl   =      -180.1217 
E_coul   =         0.7452 E_long   =         0.0000 Press    =        18.9276 
---------------- Step    71500 ----- CPU =      3.3539 (sec) ----------------
TotEng   =        98.8297 KinEng   =         0.0000 Temp     =         0.0000 
PotEng   =        98.8297 E_bond   =       186.8184 E_angle  =        85.0085 
E_dihed  =         0.0000 E_impro  =         2.5300 E_vdwl   =      -176.2772 
E_coul   =         0.7500 E_long   =         0.0000 Press    =        18.3880 
---------------- Step    72000 ----- CPU =      3.3749 (sec) ----------------
TotEng   =        90.7362 KinEng   =         0.0000 Temp     =         0.0000 
PotEng   =        90.7362 E_bond   =       186.9968 E_angle  =        84.9306 
E_dihed  =         0.0000 E_impro  =         2.4175 E_vdwl   =      -184.3647 
E_coul   =         0.7561 E_long   =         0.0000 Press    =        19.3143 
---------------- Step    72500 ----- CPU =      3.3959 (sec) ----------------
TotEng   =        98.3356 KinEng   =         0.0000 Temp     =         0.0000 
PotEng   =        98.3356 E_bond   =       184.6829 E_angle  =        84.7868 
E_dihed  =         0.0000 E_impro  =         2.2170 E_vdwl   =      -174.1077 
E_coul   =         0.7565 E_long   =         0.0000 Press    =        19.5371 
---------------- Step    73000 ----- CPU =      3.4159 (sec) ----------------
TotEng   =        95.0619 KinEng   =         0.0000 Temp     =         0.0000 
PotEng   =        95.0619 E_bond   =       182.9650 E_angle  =        84.6023 
E_dihed  =         0.0000 E_impro  =         2.1023 E_vdwl   =      -175.3683 
E_coul   =         0.7606 E_long   =         0.0000 Press    =        19.6334 
---------------- Step    73500 ----- CPU =      3.4379 (sec) ----------------
TotEng   =        96.7557 KinEng   =         0.0000 Temp     =         0.0000 
PotEng   =        96.7557 E_bond   =       181.6989 E_angle  =        84.7018 
E_dihed  =         0.0000 E_impro  =         1.9241 E_vdwl   =      -172.3338 
E_coul   =         0.7647 E_long   =         0.0000 Press    =        18.6878 
---------------- Step    74000 ----- CPU =      3.4579 (sec) ----------------
TotEng   =        93.5589 KinEng   =         0.0000 Temp     =         0.0000 
PotEng   =        93.5589 E_bond   =       180.0490 E_angle  =        85.1549 
E_dihed  =         0.0000 E_impro  =         1.9810 E_vdwl   =      -173.5891 
E_coul   =        -0.0369 E_long   =         0.0000 Press    =        19.0544 
---------------- Step    74500 ----- CPU =      3.4789 (sec) ----------------
TotEng   =        95.0407 KinEng   =         0.0000 Temp     =         0.0000 
PotEng   =        95.0407 E_bond   =       178.1109 E_angle  =        85.1881 
E_dihed  =         0.0000 E_impro  =         1.9610 E_vdwl   =      -170.1802 
E_coul   =        -0.0392 E_long   =         0.0000 Press    =        18.7227 
---------------- Step    75000 ----- CPU =      3.4999 (sec) ----------------
TotEng   =        86.5208 KinEng   =         0.0000 Temp     =         0.0000 
PotEng   =        86.5208 E_bond   =       178.1771 E_angle  =        85.4969 
E_dihed  =         0.0000 E_impro  =         1.8193 E_vdwl   =      -178.9385 
E_coul   =        -0.0339 E_long   =         0.0000 Press    =        17.8164 
---------------- Step    75500 ----- CPU =      3.5209 (sec) ----------------
TotEng   =        86.8806 KinEng   =         0.0000 Temp     =         0.0000 
PotEng   =        86.8806 E_bond   =       177.0156 E_angle  =        84.6197 
E_dihed  =         0.0000 E_impro  =         1.8644 E_vdwl   =      -176.5986 
E_coul   =        -0.0205 E_long   =         0.0000 Press    =        18.2733 
---------------- Step    76000 ----- CPU =      3.5409 (sec) ----------------
TotEng   =        90.3456 KinEng   =         0.0000 Temp     =         0.0000 
PotEng   =        90.3456 E_bond   =       178.2761 E_angle  =        84.6481 
E_dihed  =         0.0000 E_impro  =         1.7625 E_vdwl   =      -174.3120 
E_coul   =        -0.0292 E_long   =         0.0000 Press    =        18.0482 
---------------- Step    76500 ----- CPU =      3.5619 (sec) ----------------
TotEng   =        98.1190 KinEng   =         0.0000 Temp     =         0.0000 
PotEng   =        98.1190 E_bond   =       176.8809 E_angle  =        83.9834 
E_dihed  =         0.0000 E_impro  =         1.8170 E_vdwl   =      -165.3220 
E_coul   =         0.7597 E_long   =         0.0000 Press    =        17.4398 
---------------- Step    77000 ----- CPU =      3.5819 (sec) ----------------
TotEng   =        85.4258 KinEng   =         0.0000 Temp     =         0.0000 
PotEng   =        85.4258 E_bond   =       175.6253 E_angle  =        84.5696 
E_dihed  =         0.0000 E_impro  =         2.0137 E_vdwl   =      -176.7268 
E_coul   =        -0.0560 E_long   =         0.0000 Press    =        17.8326 
---------------- Step    77500 ----- CPU =      3.6019 (sec) ----------------
TotEng   =        80.4495 KinEng   =         0.0000 Temp     =         0.0000 
PotEng   =        80.4495 E_bond   =       172.9695 E_angle  =        84.4412 
E_dihed  =         0.0000 E_impro  =         1.9184 E_vdwl   =      -178.8184 
E_coul   =        -0.0612 E_long   =         0.0000 Press    =        17.7819 
---------------- Step    78000 ----- CPU =      3.6229 (sec) ----------------
TotEng   =        82.8664 KinEng   =         0.0000 Temp     =         0.0000 
PotEng   =        82.8664 E_bond   =       170.6489 E_angle  =        84.0309 
E_dihed  =         0.0000 E_impro  =         1.8939 E_vdwl   =      -173.6561 
E_coul   =        -0.0510 E_long   =         0.0000 Press    =        17.9671 
---------------- Step    78500 ----- CPU =      3.6429 (sec) ----------------
TotEng   =        80.0494 KinEng   =         0.0000 Temp     =         0.0000 
PotEng   =        80.0494 E_bond   =       171.7916 E_angle  =        84.3128 
E_dihed  =         0.0000 E_impro  =         1.8055 E_vdwl   =      -177.8125 
E_coul   =        -0.0480 E_long   =         0.0000 Press    =        17.4402 
---------------- Step    79000 ----- CPU =      3.6639 (sec) ----------------
TotEng   =        78.0009 KinEng   =         0.0000 Temp     =         0.0000 
PotEng   =        78.0009 E_bond   =       172.6967 E_angle  =        84.1360 
E_dihed  =         0.0000 E_impro  =         1.6949 E_vdwl   =      -179.6870 
E_coul   =        -0.8398 E_long   =         0.0000 Press    =        17.7156 
---------------- Step    79500 ----- CPU =      3.6839 (sec) ----------------
TotEng   =        84.5140 KinEng   =         0.0000 Temp     =         0.0000 
PotEng   =        84.5140 E_bond   =       171.5466 E_angle  =        83.2167 
E_dihed  =         0.0000 E_impro  =         1.7209 E_vdwl   =      -171.9210 
E_coul   =        -0.0492 E_long   =         0.0000 Press    =        16.7421 
---------------- Step    80000 ----- CPU =      3.7043 (sec) ----------------
TotEng   =        87.1983 KinEng   =         0.0000 Temp     =         0.0000 
PotEng   =        87.1983 E_bond   =       170.0914 E_angle  =        83.1713 
E_dihed  =         0.0000 E_impro  =         1.6681 E_vdwl   =      -168.4853 
E_coul   =         0.7529 E_long   =         0.0000 Press    =        17.0039 
---------------- Step    80500 ----- CPU =      3.7253 (sec) ----------------
TotEng   =        80.6653 KinEng   =         0.0000 Temp     =         0.0000 
PotEng   =        80.6653 E_bond   =       169.0771 E_angle  =        82.9433 
E_dihed  =         0.0000 E_impro  =         1.6694 E_vdwl   =      -172.9905 
E_coul   =        -0.0340 E_long   =         0.0000 Press    =        16.5997 
---------------- Step    81000 ----- CPU =      3.7453 (sec) ----------------
TotEng   =        77.1665 KinEng   =         0.0000 Temp     =         0.0000 
PotEng   =        77.1665 E_bond   =       167.9686 E_angle  =        81.8669 
E_dihed  =         0.0000 E_impro  =         1.7305 E_vdwl   =      -174.3542 
E_coul   =        -0.0453 E_long   =         0.0000 Press    =        16.3858 
---------------- Step    81500 ----- CPU =      3.7653 (sec) ----------------
TotEng   =        72.9825 KinEng   =         0.0000 Temp     =         0.0000 
PotEng   =        72.9825 E_bond   =       164.7548 E_angle  =        81.3272 
E_dihed  =         0.0000 E_impro  =         1.6149 E_vdwl   =      -173.8652 
E_coul   =        -0.8493 E_long   =         0.0000 Press    =        17.2827 
---------------- Step    82000 ----- CPU =      3.7863 (sec) ----------------
TotEng   =        69.0793 KinEng   =         0.0000 Temp     =         0.0000 
PotEng   =        69.0793 E_bond   =       165.5637 E_angle  =        80.0989 
E_dihed  =         0.0000 E_impro  =         1.5078 E_vdwl   =      -178.0481 
E_coul   =        -0.0430 E_long   =         0.0000 Press    =        16.4113 
---------------- Step    82500 ----- CPU =      3.8063 (sec) ----------------
TotEng   =        67.6492 KinEng   =         0.0000 Temp     =         0.0000 
PotEng   =        67.6492 E_bond   =       162.7591 E_angle  =        79.7590 
E_dihed  =         0.0000 E_impro  =         1.4264 E_vdwl   =      -176.2424 
E_coul   =        -0.0530 E_long   =         0.0000 Press    =        17.4697 
---------------- Step    83000 ----- CPU =      3.8253 (sec) ----------------
TotEng   =        66.4550 KinEng   =         0.0000 Temp     =         0.0000 
PotEng   =        66.4550 E_bond   =       161.6397 E_angle  =        79.9696 
E_dihed  =         0.0000 E_impro  =         1.5202 E_vdwl   =      -176.6072 
E_coul   =        -0.0672 E_long   =         0.0000 Press    =        16.8522 
---------------- Step    83500 ----- CPU =      3.8463 (sec) ----------------
TotEng   =        61.1063 KinEng   =         0.0000 Temp     =         0.0000 
PotEng   =        61.1063 E_bond   =       161.4518 E_angle  =        80.4721 
E_dihed  =         0.0000 E_impro  =         1.5088 E_vdwl   =      -182.2950 
E_coul   =        -0.0313 E_long   =         0.0000 Press    =        16.9018 
---------------- Step    84000 ----- CPU =      3.8663 (sec) ----------------
TotEng   =        67.0709 KinEng   =         0.0000 Temp     =         0.0000 
PotEng   =        67.0709 E_bond   =       162.6403 E_angle  =        79.4597 
E_dihed  =         0.0000 E_impro  =         1.6907 E_vdwl   =      -175.8977 
E_coul   =        -0.8221 E_long   =         0.0000 Press    =        14.8924 
---------------- Step    84500 ----- CPU =      3.8863 (sec) ----------------
TotEng   =        62.3793 KinEng   =         0.0000 Temp     =         0.0000 
PotEng   =        62.3793 E_bond   =       158.9721 E_angle  =        78.9575 
E_dihed  =         0.0000 E_impro  =         1.5715 E_vdwl   =      -176.2969 
E_coul   =        -0.8249 E_long   =         0.0000 Press    =        15.6669 
---------------- Step    85000 ----- CPU =      3.9063 (sec) ----------------
TotEng   =        61.2223 KinEng   =         0.0000 Temp     =         0.0000 
PotEng   =        61.2223 E_bond   =       158.3867 E_angle  =        77.7443 
E_dihed  =         0.0000 E_impro  =         1.6255 E_vdwl   =      -176.4819 
E_coul   =        -0.0525 E_long   =         0.0000 Press    =        16.7266 
---------------- Step    85500 ----- CPU =      3.9263 (sec) ----------------
TotEng   =        59.3881 KinEng   =         0.0000 Temp     =         0.0000 
PotEng   =        59.3881 E_bond   =       156.8058 E_angle  =        76.3488 
E_dihed  =         0.0000 E_impro  =         1.6765 E_vdwl   =      -175.3997 
E_coul   =        -0.0434 E_long   =         0.0000 Press    =        17.2668 
---------------- Step    86000 ----- CPU =      3.9473 (sec) ----------------
TotEng   =        55.1347 KinEng   =         0.0000 Temp     =         0.0000 
PotEng   =        55.1347 E_bond   =       158.4481 E_angle  =        75.7750 
E_dihed  =         0.0000 E_impro  =         1.7338 E_vdwl   =      -180.7617 
E_coul   =        -0.0605 E_long   =         0.0000 Press    =        16.0549 
---------------- Step    86500 ----- CPU =      3.9673 (sec) ----------------
TotEng   =        57.2504 KinEng   =         0.0000 Temp     =         0.0000 
PotEng   =        57.2504 E_bond   =       157.6824 E_angle  =        75.7221 
E_dihed  =         0.0000 E_impro  =         1.6909 E_vdwl   =      -177.7954 
E_coul   =        -0.0496 E_long   =         0.0000 Press    =        16.2932 
---------------- Step    87000 ----- CPU =      3.9873 (sec) ----------------
TotEng   =        55.1797 KinEng   =         0.0000 Temp     =         0.0000 
PotEng   =        55.1797 E_bond   =       157.2624 E_angle  =        75.6300 
E_dihed  =         0.0000 E_impro  =         1.4633 E_vdwl   =      -179.1234 
E_coul   =        -0.0527 E_long   =         0.0000 Press    =        15.7412 
---------------- Step    87500 ----- CPU =      4.0083 (sec) ----------------
TotEng   =        58.7207 KinEng   =         0.0000 Temp     =         0.0000 
PotEng   =        58.7207 E_bond   =       155.6812 E_angle  =        75.7957 
E_dihed  =         0.0000 E_impro  =         1.4164 E_vdwl   =      -173.3334 
E_coul   =        -0.8392 E_long   =         0.0000 Press    =        15.3272 
---------------- Step    88000 ----- CPU =      4.0283 (sec) ----------------
TotEng   =        58.9855 KinEng   =         0.0000 Temp     =         0.0000 
PotEng   =        58.9855 E_bond   =       156.3235 E_angle  =        75.7304 
E_dihed  =         0.0000 E_impro  =         1.5068 E_vdwl   =      -173.7453 
E_coul   =        -0.8299 E_long   =         0.0000 Press    =        15.7574 
---------------- Step    88500 ----- CPU =      4.0473 (sec) ----------------
TotEng   =        65.2517 KinEng   =         0.0000 Temp     =         0.0000 
PotEng   =        65.2517 E_bond   =       155.9134 E_angle  =        76.2171 
E_dihed  =         0.0000 E_impro  =         1.2004 E_vdwl   =      -168.0557 
E_coul   =        -0.0235 E_long   =         0.0000 Press    =        15.1517 
---------------- Step    89000 ----- CPU =      4.0683 (sec) ----------------
TotEng   =        64.2912 KinEng   =         0.0000 Temp     =         0.0000 
PotEng   =        64.2912 E_bond   =       153.4756 E_angle  =        76.8827 
E_dihed  =         0.0000 E_impro  =         1.2966 E_vdwl   =      -167.3370 
E_coul   =        -0.0267 E_long   =         0.0000 Press    =        14.3747 
---------------- Step    89500 ----- CPU =      4.0873 (sec) ----------------
TotEng   =        62.2827 KinEng   =         0.0000 Temp     =         0.0000 
PotEng   =        62.2827 E_bond   =       154.0144 E_angle  =        76.3204 
E_dihed  =         0.0000 E_impro  =         1.2415 E_vdwl   =      -170.0369 
E_coul   =         0.7433 E_long   =         0.0000 Press    =        13.5960 
---------------- Step    90000 ----- CPU =      4.1083 (sec) ----------------
TotEng   =        56.1510 KinEng   =         0.0000 Temp     =         0.0000 
PotEng   =        56.1510 E_bond   =       154.2081 E_angle  =        75.7595 
E_dihed  =         0.0000 E_impro  =         1.0990 E_vdwl   =      -174.8827 
E_coul   =        -0.0329 E_long   =         0.0000 Press    =        13.2632 
---------------- Step    90500 ----- CPU =      4.1283 (sec) ----------------
TotEng   =        57.9549 KinEng   =         0.0000 Temp     =         0.0000 
PotEng   =        57.9549 E_bond   =       152.2766 E_angle  =        75.9738 
E_dihed  =         0.0000 E_impro  =         1.1291 E_vdwl   =      -171.3883 
E_coul   =        -0.0363 E_long   =         0.0000 Press    =        14.1568 
---------------- Step    91000 ----- CPU =      4.1483 (sec) ----------------
TotEng   =        58.8231 KinEng   =         0.0000 Temp     =         0.0000 
PotEng   =        58.8231 E_bond   =       149.7553 E_angle  =        75.3142 
E_dihed  =         0.0000 E_impro  =         1.1040 E_vdwl   =      -167.2980 
E_coul   =        -0.0524 E_long   =         0.0000 Press    =        15.9482 
---------------- Step    91500 ----- CPU =      4.1693 (sec) ----------------
TotEng   =        58.3439 KinEng   =         0.0000 Temp     =         0.0000 
PotEng   =        58.3439 E_bond   =       148.4064 E_angle  =        75.5461 
E_dihed  =         0.0000 E_impro  =         1.2360 E_vdwl   =      -166.8046 
E_coul   =        -0.0400 E_long   =         0.0000 Press    =        15.2041 
---------------- Step    92000 ----- CPU =      4.1893 (sec) ----------------
TotEng   =        62.0389 KinEng   =         0.0000 Temp     =         0.0000 
PotEng   =        62.0389 E_bond   =       147.5355 E_angle  =        74.6733 
E_dihed  =         0.0000 E_impro  =         1.2317 E_vdwl   =      -161.3511 
E_coul   =        -0.0505 E_long   =         0.0000 Press    =        14.7404 
---------------- Step    92500 ----- CPU =      4.2083 (sec) ----------------
TotEng   =        59.5670 KinEng   =         0.0000 Temp     =         0.0000 
PotEng   =        59.5670 E_bond   =       150.2991 E_angle  =        73.8617 
E_dihed  =         0.0000 E_impro  =         1.1484 E_vdwl   =      -165.6881 
E_coul   =        -0.0541 E_long   =         0.0000 Press    =        14.1658 
---------------- Step    93000 ----- CPU =      4.2283 (sec) ----------------
TotEng   =        57.5771 KinEng   =         0.0000 Temp     =         0.0000 
PotEng   =        57.5771 E_bond   =       150.6599 E_angle  =        73.3083 
E_dihed  =         0.0000 E_impro  =         1.1558 E_vdwl   =      -167.4926 
E_coul   =        -0.0543 E_long   =         0.0000 Press    =        14.3925 
---------------- Step    93500 ----- CPU =      4.2483 (sec) ----------------
TotEng   =        48.4740 KinEng   =         0.0000 Temp     =         0.0000 
PotEng   =        48.4740 E_bond   =       148.6520 E_angle  =        72.8746 
E_dihed  =         0.0000 E_impro  =         1.0988 E_vdwl   =      -174.1011 
E_coul   =        -0.0504 E_long   =         0.0000 Press    =        15.6126 
---------------- Step    94000 ----- CPU =      4.2703 (sec) ----------------
TotEng   =        53.1595 KinEng   =         0.0000 Temp     =         0.0000 
PotEng   =        53.1595 E_bond   =       147.4583 E_angle  =        73.4076 
E_dihed  =         0.0000 E_impro  =         1.2139 E_vdwl   =      -168.8630 
E_coul   =        -0.0573 E_long   =         0.0000 Press    =        15.1525 
---------------- Step    94500 ----- CPU =      4.2903 (sec) ----------------
TotEng   =        51.3458 KinEng   =         0.0000 Temp     =         0.0000 
PotEng   =        51.3458 E_bond   =       147.8678 E_angle  =        73.4467 
E_dihed  =         0.0000 E_impro  =         1.0410 E_vdwl   =      -170.9701 
E_coul   =        -0.0396 E_long   =         0.0000 Press    =        15.1084 
---------------- Step    95000 ----- CPU =      4.3103 (sec) ----------------
TotEng   =        49.2453 KinEng   =         0.0000 Temp     =         0.0000 
PotEng   =        49.2453 E_bond   =       145.9096 E_angle  =        72.6963 
E_dihed  =         0.0000 E_impro  =         1.0239 E_vdwl   =      -171.1417 
E_coul   =         0.7572 E_long   =         0.0000 Press    =        15.2163 
---------------- Step    95500 ----- CPU =      4.3303 (sec) ----------------
TotEng   =        52.6552 KinEng   =         0.0000 Temp     =         0.0000 
PotEng   =        52.6552 E_bond   =       145.6047 E_angle  =        73.2366 
E_dihed  =         0.0000 E_impro  =         0.9715 E_vdwl   =      -167.1378 
E_coul   =        -0.0197 E_long   =         0.0000 Press    =        15.2735 
---------------- Step    96000 ----- CPU =      4.3503 (sec) ----------------
TotEng   =        51.2889 KinEng   =         0.0000 Temp     =         0.0000 
PotEng   =        51.2889 E_bond   =       145.1576 E_angle  =        73.1916 
E_dihed  =         0.0000 E_impro  =         1.3257 E_vdwl   =      -168.3598 
E_coul   =        -0.0263 E_long   =         0.0000 Press    =        14.4260 
---------------- Step    96500 ----- CPU =      4.3693 (sec) ----------------
TotEng   =        49.8392 KinEng   =         0.0000 Temp     =         0.0000 
PotEng   =        49.8392 E_bond   =       144.1601 E_angle  =        72.4342 
E_dihed  =         0.0000 E_impro  =         1.1881 E_vdwl   =      -167.9176 
E_coul   =        -0.0256 E_long   =         0.0000 Press    =        13.9599 
---------------- Step    97000 ----- CPU =      4.3893 (sec) ----------------
TotEng   =        55.1951 KinEng   =         0.0000 Temp     =         0.0000 
PotEng   =        55.1951 E_bond   =       144.6864 E_angle  =        71.5438 
E_dihed  =         0.0000 E_impro  =         1.3061 E_vdwl   =      -162.3260 
E_coul   =        -0.0153 E_long   =         0.0000 Press    =        13.8938 
---------------- Step    97500 ----- CPU =      4.4093 (sec) ----------------
TotEng   =        54.4640 KinEng   =         0.0000 Temp     =         0.0000 
PotEng   =        54.4640 E_bond   =       142.9675 E_angle  =        71.5002 
E_dihed  =         0.0000 E_impro  =         1.2648 E_vdwl   =      -161.2561 
E_coul   =        -0.0123 E_long   =         0.0000 Press    =        14.5450 
---------------- Step    98000 ----- CPU =      4.4283 (sec) ----------------
TotEng   =        50.3142 KinEng   =         0.0000 Temp     =         0.0000 
PotEng   =        50.3142 E_bond   =       143.5547 E_angle  =        71.4268 
E_dihed  =         0.0000 E_impro  =         1.2188 E_vdwl   =      -165.8607 
[...]
PotEng   =       -55.0304 E_bond   =        43.0326 E_angle  =        32.4896 
E_dihed  =         0.0000 E_impro  =         1.3958 E_vdwl   =      -131.1461 
E_coul   =        -0.8023 E_long   =         0.0000 Press    =         4.9610 
---------------- Step   252000 ----- CPU =     10.0164 (sec) ----------------
TotEng   =       -52.5294 KinEng   =         0.0000 Temp     =         0.0000 
PotEng   =       -52.5294 E_bond   =        42.4989 E_angle  =        32.7279 
E_dihed  =         0.0000 E_impro  =         1.3473 E_vdwl   =      -129.1035 
E_coul   =         0.0000 E_long   =         0.0000 Press    =         4.9770 
---------------- Step   252500 ----- CPU =     10.0344 (sec) ----------------
TotEng   =       -55.5153 KinEng   =         0.0000 Temp     =         0.0000 
PotEng   =       -55.5153 E_bond   =        43.3020 E_angle  =        32.4410 
E_dihed  =         0.0000 E_impro  =         1.1800 E_vdwl   =      -131.6432 
E_coul   =        -0.7951 E_long   =         0.0000 Press    =         5.6432 
---------------- Step   253000 ----- CPU =     10.0514 (sec) ----------------
TotEng   =       -49.2636 KinEng   =         0.0000 Temp     =         0.0000 
PotEng   =       -49.2636 E_bond   =        43.8260 E_angle  =        32.1591 
E_dihed  =         0.0000 E_impro  =         1.3367 E_vdwl   =      -125.7879 
E_coul   =        -0.7975 E_long   =         0.0000 Press    =         5.2181 
---------------- Step   253500 ----- CPU =     10.0684 (sec) ----------------
TotEng   =       -56.5619 KinEng   =         0.0000 Temp     =         0.0000 
PotEng   =       -56.5619 E_bond   =        44.1172 E_angle  =        32.0439 
E_dihed  =         0.0000 E_impro  =         1.2168 E_vdwl   =      -133.9323 
E_coul   =        -0.0075 E_long   =         0.0000 Press    =         4.9916 
---------------- Step   254000 ----- CPU =     10.0854 (sec) ----------------
TotEng   =       -56.4500 KinEng   =         0.0000 Temp     =         0.0000 
PotEng   =       -56.4500 E_bond   =        44.1001 E_angle  =        32.6063 
E_dihed  =         0.0000 E_impro  =         1.2538 E_vdwl   =      -134.4050 
E_coul   =        -0.0052 E_long   =         0.0000 Press    =         3.9979 
---------------- Step   254500 ----- CPU =     10.1034 (sec) ----------------
TotEng   =       -52.9747 KinEng   =         0.0000 Temp     =         0.0000 
PotEng   =       -52.9747 E_bond   =        46.2379 E_angle  =        32.3996 
E_dihed  =         0.0000 E_impro  =         1.2250 E_vdwl   =      -132.8301 
E_coul   =        -0.0072 E_long   =         0.0000 Press    =         3.6986 
---------------- Step   255000 ----- CPU =     10.1204 (sec) ----------------
TotEng   =       -60.2063 KinEng   =         0.0000 Temp     =         0.0000 
PotEng   =       -60.2063 E_bond   =        43.9233 E_angle  =        32.0019 
E_dihed  =         0.0000 E_impro  =         1.1749 E_vdwl   =      -137.3018 
E_coul   =        -0.0046 E_long   =         0.0000 Press    =         3.8719 
---------------- Step   255500 ----- CPU =     10.1374 (sec) ----------------
TotEng   =       -57.4903 KinEng   =         0.0000 Temp     =         0.0000 
PotEng   =       -57.4903 E_bond   =        44.1744 E_angle  =        32.1419 
E_dihed  =         0.0000 E_impro  =         1.1372 E_vdwl   =      -135.7397 
E_coul   =         0.7959 E_long   =         0.0000 Press    =         4.3951 
---------------- Step   256000 ----- CPU =     10.1544 (sec) ----------------
TotEng   =       -49.4192 KinEng   =         0.0000 Temp     =         0.0000 
PotEng   =       -49.4192 E_bond   =        43.8601 E_angle  =        31.6734 
E_dihed  =         0.0000 E_impro  =         1.1043 E_vdwl   =      -126.8559 
E_coul   =         0.7988 E_long   =         0.0000 Press    =         4.1719 
---------------- Step   256500 ----- CPU =     10.1714 (sec) ----------------
TotEng   =       -48.5986 KinEng   =         0.0000 Temp     =         0.0000 
PotEng   =       -48.5986 E_bond   =        42.5723 E_angle  =        31.8542 
E_dihed  =         0.0000 E_impro  =         1.0873 E_vdwl   =      -124.9047 
E_coul   =         0.7923 E_long   =         0.0000 Press    =         5.1999 
---------------- Step   257000 ----- CPU =     10.1884 (sec) ----------------
TotEng   =       -48.4234 KinEng   =         0.0000 Temp     =         0.0000 
PotEng   =       -48.4234 E_bond   =        41.8980 E_angle  =        31.1167 
E_dihed  =         0.0000 E_impro  =         1.1443 E_vdwl   =      -123.3753 
E_coul   =         0.7930 E_long   =         0.0000 Press    =         5.2733 
---------------- Step   257500 ----- CPU =     10.2064 (sec) ----------------
TotEng   =       -55.8848 KinEng   =         0.0000 Temp     =         0.0000 
PotEng   =       -55.8848 E_bond   =        42.7468 E_angle  =        31.3603 
E_dihed  =         0.0000 E_impro  =         1.2506 E_vdwl   =      -131.2429 
E_coul   =         0.0004 E_long   =         0.0000 Press    =         4.5604 
---------------- Step   258000 ----- CPU =     10.2234 (sec) ----------------
TotEng   =       -49.4359 KinEng   =         0.0000 Temp     =         0.0000 
PotEng   =       -49.4359 E_bond   =        42.1103 E_angle  =        31.4821 
E_dihed  =         0.0000 E_impro  =         1.1978 E_vdwl   =      -125.0186 
E_coul   =         0.7925 E_long   =         0.0000 Press    =         5.0227 
---------------- Step   258500 ----- CPU =     10.2394 (sec) ----------------
TotEng   =       -54.4137 KinEng   =         0.0000 Temp     =         0.0000 
PotEng   =       -54.4137 E_bond   =        41.6208 E_angle  =        31.4429 
E_dihed  =         0.0000 E_impro  =         1.2168 E_vdwl   =      -128.6906 
E_coul   =        -0.0037 E_long   =         0.0000 Press    =         5.4493 
---------------- Step   259000 ----- CPU =     10.2574 (sec) ----------------
TotEng   =       -56.0275 KinEng   =         0.0000 Temp     =         0.0000 
PotEng   =       -56.0275 E_bond   =        42.1956 E_angle  =        31.2728 
E_dihed  =         0.0000 E_impro  =         1.1431 E_vdwl   =      -130.6389 
E_coul   =        -0.0000 E_long   =         0.0000 Press    =         5.2458 
---------------- Step   259500 ----- CPU =     10.2734 (sec) ----------------
TotEng   =       -56.4076 KinEng   =         0.0000 Temp     =         0.0000 
PotEng   =       -56.4076 E_bond   =        42.2892 E_angle  =        31.4722 
E_dihed  =         0.0000 E_impro  =         1.3862 E_vdwl   =      -132.3569 
E_coul   =         0.8017 E_long   =         0.0000 Press    =         4.9215 
---------------- Step   260000 ----- CPU =     10.2904 (sec) ----------------
TotEng   =       -50.7593 KinEng   =         0.0000 Temp     =         0.0000 
PotEng   =       -50.7593 E_bond   =        42.0101 E_angle  =        31.1425 
E_dihed  =         0.0000 E_impro  =         1.3310 E_vdwl   =      -126.0437 
E_coul   =         0.8006 E_long   =         0.0000 Press    =         5.1048 
---------------- Step   260500 ----- CPU =     10.3074 (sec) ----------------
TotEng   =       -54.9417 KinEng   =         0.0000 Temp     =         0.0000 
PotEng   =       -54.9417 E_bond   =        42.0479 E_angle  =        30.7855 
E_dihed  =         0.0000 E_impro  =         1.1154 E_vdwl   =      -129.6833 
E_coul   =         0.7928 E_long   =         0.0000 Press    =         5.7716 
---------------- Step   261000 ----- CPU =     10.3244 (sec) ----------------
TotEng   =       -52.8887 KinEng   =         0.0000 Temp     =         0.0000 
PotEng   =       -52.8887 E_bond   =        42.5232 E_angle  =        30.7600 
E_dihed  =         0.0000 E_impro  =         1.1781 E_vdwl   =      -128.1471 
E_coul   =         0.7971 E_long   =         0.0000 Press    =         5.9562 
---------------- Step   261500 ----- CPU =     10.3413 (sec) ----------------
TotEng   =       -55.9083 KinEng   =         0.0000 Temp     =         0.0000 
PotEng   =       -55.9083 E_bond   =        42.3500 E_angle  =        30.9945 
E_dihed  =         0.0000 E_impro  =         1.4051 E_vdwl   =      -132.2502 
E_coul   =         1.5923 E_long   =         0.0000 Press    =         5.9141 
---------------- Step   262000 ----- CPU =     10.3583 (sec) ----------------
TotEng   =       -53.6328 KinEng   =         0.0000 Temp     =         0.0000 
PotEng   =       -53.6328 E_bond   =        42.1805 E_angle  =        30.7901 
E_dihed  =         0.0000 E_impro  =         1.4069 E_vdwl   =      -128.0151 
E_coul   =         0.0048 E_long   =         0.0000 Press    =         5.5063 
---------------- Step   262500 ----- CPU =     10.3754 (sec) ----------------
TotEng   =       -59.1615 KinEng   =         0.0000 Temp     =         0.0000 
PotEng   =       -59.1615 E_bond   =        42.2853 E_angle  =        30.7862 
E_dihed  =         0.0000 E_impro  =         1.5648 E_vdwl   =      -133.0015 
E_coul   =        -0.7964 E_long   =         0.0000 Press    =         4.8602 
---------------- Step   263000 ----- CPU =     10.3934 (sec) ----------------
TotEng   =       -52.3481 KinEng   =         0.0000 Temp     =         0.0000 
PotEng   =       -52.3481 E_bond   =        41.6848 E_angle  =        30.9867 
E_dihed  =         0.0000 E_impro  =         1.4511 E_vdwl   =      -125.6788 
E_coul   =        -0.7919 E_long   =         0.0000 Press    =         4.5235 
---------------- Step   263500 ----- CPU =     10.4104 (sec) ----------------
TotEng   =       -53.8799 KinEng   =         0.0000 Temp     =         0.0000 
PotEng   =       -53.8799 E_bond   =        42.3895 E_angle  =        30.8347 
E_dihed  =         0.0000 E_impro  =         1.4326 E_vdwl   =      -127.7475 
E_coul   =        -0.7892 E_long   =         0.0000 Press    =         4.1281 
---------------- Step   264000 ----- CPU =     10.4264 (sec) ----------------
TotEng   =       -50.0294 KinEng   =         0.0000 Temp     =         0.0000 
PotEng   =       -50.0294 E_bond   =        42.9285 E_angle  =        30.5159 
E_dihed  =         0.0000 E_impro  =         1.6906 E_vdwl   =      -124.3739 
E_coul   =        -0.7904 E_long   =         0.0000 Press    =         4.6366 
---------------- Step   264500 ----- CPU =     10.4444 (sec) ----------------
TotEng   =       -57.0022 KinEng   =         0.0000 Temp     =         0.0000 
PotEng   =       -57.0022 E_bond   =        41.0312 E_angle  =        29.8539 
E_dihed  =         0.0000 E_impro  =         1.6976 E_vdwl   =      -128.7901 
E_coul   =        -0.7948 E_long   =         0.0000 Press    =         5.3513 
---------------- Step   265000 ----- CPU =     10.4614 (sec) ----------------
TotEng   =       -60.4920 KinEng   =         0.0000 Temp     =         0.0000 
PotEng   =       -60.4920 E_bond   =        42.1899 E_angle  =        29.7685 
E_dihed  =         0.0000 E_impro  =         1.4191 E_vdwl   =      -133.0778 
E_coul   =        -0.7915 E_long   =         0.0000 Press    =         4.3038 
---------------- Step   265500 ----- CPU =     10.4784 (sec) ----------------
TotEng   =       -52.6895 KinEng   =         0.0000 Temp     =         0.0000 
PotEng   =       -52.6895 E_bond   =        41.4334 E_angle  =        29.6822 
E_dihed  =         0.0000 E_impro  =         1.3659 E_vdwl   =      -125.1711 
E_coul   =         0.0000 E_long   =         0.0000 Press    =         4.5663 
---------------- Step   266000 ----- CPU =     10.4964 (sec) ----------------
TotEng   =       -49.4132 KinEng   =         0.0000 Temp     =         0.0000 
PotEng   =       -49.4132 E_bond   =        41.8279 E_angle  =        29.8418 
E_dihed  =         0.0000 E_impro  =         1.3938 E_vdwl   =      -122.4766 
E_coul   =         0.0000 E_long   =         0.0000 Press    =         3.8776 
---------------- Step   266500 ----- CPU =     10.5134 (sec) ----------------
TotEng   =       -51.0687 KinEng   =         0.0000 Temp     =         0.0000 
PotEng   =       -51.0687 E_bond   =        40.9827 E_angle  =        30.0411 
E_dihed  =         0.0000 E_impro  =         1.4435 E_vdwl   =      -123.5360 
E_coul   =         0.0000 E_long   =         0.0000 Press    =         4.9914 
---------------- Step   267000 ----- CPU =     10.5304 (sec) ----------------
TotEng   =       -58.5892 KinEng   =         0.0000 Temp     =         0.0000 
PotEng   =       -58.5892 E_bond   =        40.8743 E_angle  =        29.8836 
E_dihed  =         0.0000 E_impro  =         1.4533 E_vdwl   =      -130.8005 
E_coul   =         0.0000 E_long   =         0.0000 Press    =         5.3436 
---------------- Step   267500 ----- CPU =     10.5474 (sec) ----------------
TotEng   =       -63.1080 KinEng   =         0.0000 Temp     =         0.0000 
PotEng   =       -63.1080 E_bond   =        39.6600 E_angle  =        29.6401 
E_dihed  =         0.0000 E_impro  =         1.7659 E_vdwl   =      -134.1740 
E_coul   =         0.0000 E_long   =         0.0000 Press    =         6.1152 
---------------- Step   268000 ----- CPU =     10.5654 (sec) ----------------
TotEng   =       -57.7596 KinEng   =         0.0000 Temp     =         0.0000 
PotEng   =       -57.7596 E_bond   =        39.1937 E_angle  =        30.3053 
E_dihed  =         0.0000 E_impro  =         1.8589 E_vdwl   =      -129.1174 
E_coul   =         0.0000 E_long   =         0.0000 Press    =         5.7882 
---------------- Step   268500 ----- CPU =     10.5824 (sec) ----------------
TotEng   =       -61.0032 KinEng   =         0.0000 Temp     =         0.0000 
PotEng   =       -61.0032 E_bond   =        39.5698 E_angle  =        30.1514 
E_dihed  =         0.0000 E_impro  =         1.8173 E_vdwl   =      -132.5417 
E_coul   =         0.0000 E_long   =         0.0000 Press    =         5.6656 
---------------- Step   269000 ----- CPU =     10.5994 (sec) ----------------
TotEng   =       -53.9435 KinEng   =         0.0000 Temp     =         0.0000 
PotEng   =       -53.9435 E_bond   =        40.1591 E_angle  =        30.0459 
E_dihed  =         0.0000 E_impro  =         1.7606 E_vdwl   =      -125.9091 
E_coul   =         0.0000 E_long   =         0.0000 Press    =         5.7434 
---------------- Step   269500 ----- CPU =     10.6174 (sec) ----------------
TotEng   =       -57.1505 KinEng   =         0.0000 Temp     =         0.0000 
PotEng   =       -57.1505 E_bond   =        40.6342 E_angle  =        29.5799 
E_dihed  =         0.0000 E_impro  =         1.6437 E_vdwl   =      -129.0083 
E_coul   =         0.0000 E_long   =         0.0000 Press    =         5.5587 
---------------- Step   270000 ----- CPU =     10.6354 (sec) ----------------
TotEng   =       -58.0650 KinEng   =         0.0000 Temp     =         0.0000 
PotEng   =       -58.0650 E_bond   =        40.7624 E_angle  =        29.6462 
E_dihed  =         0.0000 E_impro  =         1.5324 E_vdwl   =      -130.0061 
E_coul   =         0.0000 E_long   =         0.0000 Press    =         5.3750 
---------------- Step   270500 ----- CPU =     10.6524 (sec) ----------------
TotEng   =       -59.7151 KinEng   =         0.0000 Temp     =         0.0000 
PotEng   =       -59.7151 E_bond   =        40.5390 E_angle  =        29.2738 
E_dihed  =         0.0000 E_impro  =         1.7371 E_vdwl   =      -132.0563 
E_coul   =         0.7913 E_long   =         0.0000 Press    =         5.4146 
---------------- Step   271000 ----- CPU =     10.6683 (sec) ----------------
TotEng   =       -45.9323 KinEng   =         0.0000 Temp     =         0.0000 
PotEng   =       -45.9323 E_bond   =        41.2884 E_angle  =        29.1866 
E_dihed  =         0.0000 E_impro  =         1.7196 E_vdwl   =      -118.9213 
E_coul   =         0.7944 E_long   =         0.0000 Press    =         5.1932 
---------------- Step   271500 ----- CPU =     10.6863 (sec) ----------------
TotEng   =       -47.8094 KinEng   =         0.0000 Temp     =         0.0000 
PotEng   =       -47.8094 E_bond   =        40.0598 E_angle  =        29.3801 
E_dihed  =         0.0000 E_impro  =         1.6904 E_vdwl   =      -118.9397 
E_coul   =         0.0000 E_long   =         0.0000 Press    =         5.2755 
---------------- Step   272000 ----- CPU =     10.7043 (sec) ----------------
TotEng   =       -46.5571 KinEng   =         0.0000 Temp     =         0.0000 
PotEng   =       -46.5571 E_bond   =        40.5949 E_angle  =        29.2006 
E_dihed  =         0.0000 E_impro  =         1.6179 E_vdwl   =      -117.9704 
E_coul   =         0.0000 E_long   =         0.0000 Press    =         4.9519 
---------------- Step   272500 ----- CPU =     10.7213 (sec) ----------------
TotEng   =       -45.9931 KinEng   =         0.0000 Temp     =         0.0000 
PotEng   =       -45.9931 E_bond   =        40.7713 E_angle  =        29.3670 
E_dihed  =         0.0000 E_impro  =         1.5574 E_vdwl   =      -118.4803 
E_coul   =         0.7915 E_long   =         0.0000 Press    =         5.0998 
---------------- Step   273000 ----- CPU =     10.7373 (sec) ----------------
TotEng   =       -43.0309 KinEng   =         0.0000 Temp     =         0.0000 
PotEng   =       -43.0309 E_bond   =        41.5579 E_angle  =        29.4054 
E_dihed  =         0.0000 E_impro  =         1.6015 E_vdwl   =      -116.3905 
E_coul   =         0.7949 E_long   =         0.0000 Press    =         4.4366 
---------------- Step   273500 ----- CPU =     10.7543 (sec) ----------------
TotEng   =       -46.9786 KinEng   =         0.0000 Temp     =         0.0000 
PotEng   =       -46.9786 E_bond   =        42.2684 E_angle  =        29.4698 
E_dihed  =         0.0000 E_impro  =         1.8571 E_vdwl   =      -121.3741 
E_coul   =         0.8002 E_long   =         0.0000 Press    =         4.3105 
---------------- Step   274000 ----- CPU =     10.7713 (sec) ----------------
TotEng   =       -47.1766 KinEng   =         0.0000 Temp     =         0.0000 
PotEng   =       -47.1766 E_bond   =        41.7506 E_angle  =        29.2886 
E_dihed  =         0.0000 E_impro  =         1.7654 E_vdwl   =      -120.7775 
E_coul   =         0.7963 E_long   =         0.0000 Press    =         4.5507 
---------------- Step   274500 ----- CPU =     10.7873 (sec) ----------------
TotEng   =       -50.4073 KinEng   =         0.0000 Temp     =         0.0000 
PotEng   =       -50.4073 E_bond   =        41.8343 E_angle  =        29.1715 
E_dihed  =         0.0000 E_impro  =         1.6812 E_vdwl   =      -123.8843 
E_coul   =         0.7900 E_long   =         0.0000 Press    =         4.3822 
---------------- Step   275000 ----- CPU =     10.8044 (sec) ----------------
TotEng   =       -47.0848 KinEng   =         0.0000 Temp     =         0.0000 
PotEng   =       -47.0848 E_bond   =        41.2040 E_angle  =        29.1821 
E_dihed  =         0.0000 E_impro  =         1.8447 E_vdwl   =      -120.1046 
E_coul   =         0.7891 E_long   =         0.0000 Press    =         4.1795 
---------------- Step   275500 ----- CPU =     10.8214 (sec) ----------------
TotEng   =       -45.4304 KinEng   =         0.0000 Temp     =         0.0000 
PotEng   =       -45.4304 E_bond   =        40.8041 E_angle  =        28.8889 
E_dihed  =         0.0000 E_impro  =         1.8830 E_vdwl   =      -117.7971 
E_coul   =         0.7907 E_long   =         0.0000 Press    =         4.4440 
---------------- Step   276000 ----- CPU =     10.8374 (sec) ----------------
TotEng   =       -48.3023 KinEng   =         0.0000 Temp     =         0.0000 
PotEng   =       -48.3023 E_bond   =        41.6296 E_angle  =        29.1563 
E_dihed  =         0.0000 E_impro  =         2.0624 E_vdwl   =      -121.9473 
E_coul   =         0.7968 E_long   =         0.0000 Press    =         4.3279 
---------------- Step   276500 ----- CPU =     10.8544 (sec) ----------------
TotEng   =       -45.1703 KinEng   =         0.0000 Temp     =         0.0000 
PotEng   =       -45.1703 E_bond   =        42.3184 E_angle  =        29.1347 
E_dihed  =         0.0000 E_impro  =         2.0484 E_vdwl   =      -118.6719 
E_coul   =         0.0000 E_long   =         0.0000 Press    =         3.9602 
