ITEM: TIMESTEP
0
ITEM: NUMBER OF ATOMS
161
ITEM: BOX BOUNDS pp pp pp
-3.0000000000000000e+01 3.0000000000000000e+01
-3.0000000000000000e+01 3.0000000000000000e+01
-1.7000000000000000e+02 1.7000000000000000e+02
ITEM: ATOMS id type xu yu zu
109 3 11.593 -23.429 -64.466
110 2 11.878 -26.371 -65.995
108 2 13.19 -20.921 -64.332
76 9 17.67 -11.686 -64.309
106 2 15.217 -23.521 -63.089
107 13 16.424 -26.212 -61.764
113 4 10.011 -17.016 -62.941
111 4 14.433 -17.866 -63.809
112 4 12.729 -16.166 -62.047
75 9 17.346 -13.699 -62.129
114 8 11.745 -13.12 -61.15
115 2 13.098 -11.285 -62.687
122 6 9.093 -8.799 -61.029
123 1 8.632 -7.187 -62.833
127 2 5.162 -6.475 -61.122
160 11 5.412 -27.289 -58.511
99 6 15.086 -28.617 -58.15
161 11 4.963 -26.199 -60.596
100 2 9.938 -25.626 -60.832
98 8 12.907 -26.403 -59.243
154 1 3.007 -21.71 -57.77
101 2 11.396 -22.387 -60.184
102 7 10.086 -20.557 -58.392
103 2 14.577 -22.324 -60.03
157 7 5.676 -17.224 -59.311
77 10 16.299 -17.496 -58.461
78 2 14.06 -18.603 -58.376
135 11 1.139 -14.514 -60.531
74 2 16.717 -14.215 -59.009
81 11 21.008 -16.579 -58.588
128 7 5.382 -12.492 -58.714
129 2 7.666 -12.53 -60.077
116 2 11.866 -11.071 -58.371
71 13 15.954 -10.929 -58.922
126 1 4.233 -9.694 -59.32
121 2 8.918 -9.195 -57.965
70 2 15.462 -7.833 -59.091
158 2 4.608 -24.437 -57.114
96 2 11.865 -25.133 -55.943
97 3 10.082 -26.521 -54.6
105 1 18.922 -24.144 -56.959
153 6 -4.945 -22.33 -57.22
152 2 -2.691 -22.739 -55.959
151 1 0.203 -23.123 -56.721
159 2 7.324 -23.118 -56.436
104 6 16.189 -23.246 -57.519
155 8 3.587 -19.094 -57.415
156 2 5.972 -18.718 -57.424
120 1 9.723 -16.943 -55.786
79 3 18.303 -18.97 -55.894
143 2 -3.605 -16.525 -55.202
134 2 1.427 -14.803 -56.195
119 6 9.011 -14.918 -56.312
117 3 11.649 -13.616 -56.516
118 2 12.436 -15.552 -56.158
80 2 20.524 -16.342 -55.158
132 5 2.067 -11.946 -55.271
130 11 5.086 -12.265 -55.408
133 1 -0.026 -9.167 -54.799
124 2 5.997 -8.003 -57.203
66 2 14.135 -7.349 -55.7
72 2 17.843 -9.666 -56.696
125 6 6.525 -3.885 -56.204
73 11 18.63 -6.612 -54.858
149 2 -0.314 -26.746 -52.412
148 3 1.283 -24.613 -54.201
145 9 -1.491 -21.85 -51.725
146 10 2.828 -21.96 -52.99
93 9 11.673 -20.458 -53.696
92 2 13.403 -23.122 -53.948
91 1 16.757 -22.693 -52.539
142 8 -1.42 -16.741 -51.856
144 9 0.329 -19.585 -52.61
138 2 6.271 -18.451 -52.857
94 9 12.803 -18.358 -53.439
95 10 11.342 -17.722 -51.656
136 2 2.927 -16.277 -53.96
140 2 1.178 -14.855 -51.441
137 11 5.565 -16.149 -52.96
82 2 20.13 -16.568 -52.119
131 2 7.431 -11.931 -53.419
65 11 13.081 -12.243 -52.826
68 2 9.674 -7.829 -54.401
69 3 9.294 -6.673 -52.488
64 2 14.773 -9.708 -53.995
63 11 16.851 -8.768 -51.485
67 7 11.484 -6.261 -54.161
150 6 -1.657 -28.206 -50.028
88 1 14.611 -25.263 -48.234
147 2 3.296 -20.876 -50.669
90 6 14.65 -22.519 -50.954
86 2 16.825 -21.273 -48.268
139 3 7.114 -18.163 -50.645
83 2 21.056 -17.737 -49.378
59 2 14.47 -15.065 -48.216
84 8 22.859 -16.403 -49.279
141 3 3.294 -12.601 -50.599
61 1 13.134 -11.562 -48.748
62 2 10.143 -13.026 -48.194
1 1 0 0 -48.726
89 2 12.444 -24.918 -47.712
87 6 14.559 -23.199 -46.919
85 6 19.836 -20.536 -48.037
58 4 12.096 -19.483 -48.036
57 4 13.361 -17.956 -46.842
60 6 16.616 -13.092 -46.699
2 2 0.836 -0.732 -45.176
4 2 -4.536 2.198 -45.131
36 2 6.295 -20.604 -42.471
35 7 8.817 -18.992 -42.905
56 12 13.796 -19.86 -44.403
30 2 5.549 -15.476 -42.044
31 9 5.312 -14.415 -44.683
37 11 12.814 -13.732 -44
38 8 14.856 -14.794 -42.688
29 7 -3.211 -13.201 -42.122
21 8 7.916 -11.67 -43.073
47 6 22.674 -12.509 -42.502
18 2 -0.376 -8.859 -42.751
40 2 11.513 -9.113 -43.502
39 2 13.592 -9.931 -43.128
41 2 16.31 -9.881 -42.01
43 1 19.131 -8.332 -41.8
46 2 21.428 -9.726 -43.276
9 2 -4.741 -3.406 -42.937
10 5 2.707 -5.593 -42.61
8 2 -2.107 -2.516 -41.942
5 4 3.742 -1.016 -43.503
3 3 -1.927 0.984 -44.362
6 4 5.636 0.607 -44.309
34 2 4.858 -18.515 -39.295
33 10 8.157 -18.827 -39.414
55 9 12.446 -19.866 -39.948
51 3 16.439 -17.958 -39.299
54 2 14.109 -18.752 -41.534
28 2 -0.567 -14.613 -41.062
27 4 2.19 -15.357 -40.699
32 9 7.987 -15.222 -39.512
48 1 21.621 -15.489 -40.953
49 2 24.416 -15.629 -39.776
50 2 26.97 -16.511 -38.727
19 8 4.513 -11.117 -40.653
20 8 7.088 -10.213 -41.36
22 6 9.475 -11.708 -41.497
14 1 2.019 -7.704 -38.678
17 2 1.637 -9.94 -40.802
7 4 0.666 -3.661 -41.257
11 1 4.433 -6.281 -40.063
12 2 6.543 -4.676 -38.739
44 2 19.753 -6.016 -40.786
45 2 22.309 -5.518 -38.938
25 4 2.15 -13.531 -37.497
52 2 16.683 -15.673 -37.279
26 4 -0.587 -10.317 -36.821
23 2 4.656 -11.777 -37.52
42 6 17.362 -11.014 -38.164
24 2 5.529 -9.636 -36.152
15 2 0.483 -5.066 -37.029
13 6 8.79 -4.454 -36.419
16 7 0.641 -2.793 -35.34
53 7 17.918 -13.788 -35.243
ITEM: TIMESTEP
500
ITEM: NUMBER OF ATOMS
161
ITEM: BOX BOUNDS pp pp pp
-3.0000000000000000e+01 3.0000000000000000e+01
-3.0000000000000000e+01 3.0000000000000000e+01
-1.7000000000000000e+02 1.7000000000000000e+02
ITEM: ATOMS id type xu yu zu
109 3 10.9875 -22.6383 -64.2182
110 2 12.3056 -25.7587 -66.033
108 2 13.0051 -21.8754 -64.5536
76 9 17.4228 -12.9891 -63.4586
106 2 15.4713 -23.4564 -62.987
107 13 16.5599 -26.1809 -61.9011
113 4 10.7892 -17.2443 -63.6798
111 4 13.7987 -18.0737 -63.9072
112 4 12.7974 -16.1008 -62.3305
75 9 17.0256 -14.5028 -61.8574
114 8 12.2798 -13.9883 -62.077
115 2 13.014 -11.1956 -62.6671
122 6 9.1894 -8.50746 -61.4808
123 1 8.88093 -7.04895 -63.1435
127 2 4.69595 -7.32095 -60.6598
160 11 5.41004 -27.4313 -58.3794
99 6 15.013 -28.5874 -58.1894
161 11 4.86654 -26.2519 -61.088
100 2 9.93358 -25.6432 -60.825
98 8 12.8659 -26.5393 -59.0686
154 1 2.3334 -21.1933 -58.2745
101 2 11.325 -22.2562 -59.9998
102 7 10.2303 -20.5275 -58.708
103 2 16.9264 -22.4044 -56.2095
157 7 5.22909 -17.1873 -59.9068
77 10 16.4008 -17.1894 -60.4318
78 2 14.5284 -18.1485 -58.4494
135 11 1.09174 -14.4888 -60.4803
74 2 16.82 -13.1982 -58.9025
81 11 21.0159 -16.5141 -58.6742
128 7 4.71983 -12.4055 -58.0978
129 2 7.90415 -12.2936 -60.8611
116 2 11.7302 -11.1796 -58.8566
71 13 15.9522 -11.141 -59.2808
126 1 3.54602 -8.93213 -60.3556
121 2 8.11018 -9.32303 -59.5059
70 2 15.3795 -7.87758 -59.3892
158 2 5.31083 -24.6601 -56.8602
96 2 11.7954 -25.0915 -56.1561
97 3 9.90622 -26.6409 -55.0019
105 1 14.6026 -25.568 -53.1962
153 6 -4.60048 -22.09 -57.3968
152 2 -2.6816 -22.9775 -56.2955
151 1 -0.987001 -23.5759 -56.7968
159 2 7.24251 -23.4304 -57.0637
104 6 -24.8165 -20.4885 -359.825
155 8 3.08902 -19.8423 -57.6263
156 2 5.99815 -18.7403 -57.5578
120 1 9.44055 -16.4588 -56.3348
79 3 18.1317 -18.9056 -55.8717
143 2 -3.34201 -16.7394 -55.1059
134 2 1.30979 -15.4012 -56.3445
119 6 8.88838 -16.1814 -60.6269
117 3 9.91474 -6.78554 -57.7505
118 2 62.1392 -24.5511 242.488
80 2 20.7096 -16.0507 -55.0906
132 5 1.97344 -11.1441 -55.0077
130 11 4.73062 -12.2856 -57.4938
133 1 -0.0528084 -9.09632 -55.0139
124 2 5.44292 -6.37054 -57.5098
66 2 13.8647 -7.04901 -55.2205
72 2 18.5476 -9.45039 -56.401
125 6 6.19843 -4.21 -56.4375
73 11 18.8024 -6.39986 -55.0438
149 2 -0.896038 -27.1735 -53.2126
148 3 2.03681 -25.0289 -54.8784
145 9 -0.750581 -21.5598 -53.051
146 10 2.33337 -21.0509 -53.8018
93 9 11.9214 -20.1574 -54.9633
92 2 12.5961 -22.7932 -55.4157
91 1 16.4943 -21.5702 -52.5291
142 8 -1.70378 -16.3053 -52.8195
144 9 -0.0445989 -19.7393 -54.8338
138 2 7.182 -21.6283 -53.2996
94 9 11.6367 -17.2679 -52.7529
95 10 11.7361 -18.3566 -53.622
136 2 3.43464 -16.222 -55.0256
140 2 0.861789 -14.7516 -52.0188
137 11 5.29714 -13.5022 -53.5681
82 2 18.8769 -17.0725 -53.0917
131 2 7.20033 -13.4024 -53.7627
65 11 13.0935 -12.3968 -54.2353
68 2 7.45219 -9.29254 -55.0035
69 3 9.23973 -6.84459 -53.6256
64 2 14.1136 -9.83224 -55.026
63 11 16.7896 -8.97927 -51.8498
67 7 14.5547 -3.74053 -54.9994
150 6 -1.63421 -27.7777 -51.6388
88 1 14.6821 -25.9983 -49.3747
147 2 2.96786 -21.2627 -51.9786
90 6 16.9516 -22.1137 -52.227
86 2 15.0529 -21.9259 -48.2956
139 3 7.06122 -18.3601 -51.8762
83 2 11.341 -23.3188 -51.6276
59 2 14.4186 -14.9049 -48.9963
84 8 40.8232 -12.2756 -50.053
141 3 2.59647 -12.4863 -50.6614
61 1 13.1374 -11.041 -49.6984
62 2 10.6351 -12.6389 -49.9333
1 1 0 0 -48.726
89 2 12.0398 -25.9116 -48.0221
87 6 15.1848 -23.303 -48.039
85 6 14.6172 -18.3543 -50.3579
58 4 11.3118 -19.6139 -49.2492
57 4 12.6189 -18.0498 -47.0335
60 6 16.4751 -12.9526 -47.9944
2 2 -0.103264 -0.722013 -47.1578
4 2 -4.32834 2.17139 -46.3738
36 2 6.06089 -20.5554 -43.9474
35 7 9.12737 -17.9742 -44.4898
56 12 12.2099 -19.9878 -46.2088
30 2 4.92176 -15.8215 -43.8961
31 9 6.30287 -15.4289 -44.7838
37 11 11.3604 -14.4136 -45.5772
38 8 15.6957 -14.9438 -43.421
29 7 -3.08178 -13.3245 -43.2124
21 8 7.82923 -11.4644 -44.0704
47 6 22.5775 -12.6733 -43.6952
18 2 -0.103081 -9.11421 -43.9193
40 2 11.5637 -8.75038 -44.9125
39 2 13.7309 -10.0018 -44.2786
41 2 15.7846 -10.2631 -43.1768
43 1 19.0993 -7.64474 -42.3748
46 2 22.0732 -10.1467 -44.8056
9 2 -3.9015 -3.65091 -44.0386
10 5 2.77153 -5.90259 -44.104
8 2 -2.28264 -2.42506 -43.1131
5 4 2.92002 -0.461641 -44.6606
3 3 -1.06421 0.738168 -44.9641
6 4 4.93109 -0.0728994 -45.5762
34 2 5.45186 -18.5488 -41.0949
33 10 7.46885 -17.787 -40.7714
55 9 13.025 -19.6747 -43.4348
51 3 18.0722 -18.3099 -40.7388
54 2 14.1812 -18.8083 -42.0311
28 2 -0.557671 -14.5651 -42.4361
27 4 1.10478 -14.7582 -41.5987
32 9 7.99894 -15.5518 -41.1504
48 1 21.6185 -15.3607 -42.1556
49 2 24.4616 -15.6017 -41.0273
50 2 25.2124 -16.8308 -39.9866
19 8 4.15313 -11.6748 -42.2915
20 8 7.4364 -9.01203 -42.9734
22 6 10.1811 -12.1578 -42.3275
14 1 2.02001 -7.16075 -38.8317
17 2 0.33489 -9.63168 -42.6038
7 4 1.40597 -2.0369 -43.3006
11 1 4.98571 -5.7071 -41.6288
12 2 6.16175 -4.63793 -40.0468
44 2 19.7709 -6.11705 -42.0537
45 2 22.3879 -5.55663 -40.064
25 4 1.77524 -13.3242 -39.0817
52 2 16.8774 -15.2509 -37.9989
26 4 -0.235327 -11.7108 -39.0692
23 2 5.46758 -11.5244 -37.9482
42 6 17.3832 -10.6963 -39.7706
24 2 5.17413 -10.1296 -37.4779
15 2 0.557433 -5.14571 -38.246
13 6 8.21163 -4.63685 -37.7295
16 7 0.685062 -2.86497 -36.5246
53 7 17.968 -13.8435 -36.2567
ITEM: TIMESTEP
1000
ITEM: NUMBER OF ATOMS
161
ITEM: BOX BOUNDS pp pp pp
-3.0000000000000000e+01 3.0000000000000000e+01
-3.0000000000000000e+01 3.0000000000000000e+01
-1.7000000000000000e+02 1.7000000000000000e+02
ITEM: ATOMS id type xu yu zu
109 3 10.5302 -22.2628 -64.1094
110 2 12.66 -25.0537 -65.9948
108 2 13.0714 -22.5102 -64.6842
76 9 17.3867 -13.6556 -63.3566
106 2 15.5426 -23.3505 -62.8452
107 13 16.6261 -26.2462 -62.0121
113 4 11.8807 -17.4875 -64.6524
111 4 13.777 -18.5894 -64.1157
112 4 12.9226 -16.1259 -62.5979
75 9 17.0891 -14.7219 -61.6876
114 8 12.3651 -14.398 -62.4691
115 2 13.005 -11.1426 -62.7305
122 6 9.22106 -8.35194 -61.8893
123 1 8.92374 -6.78874 -63.3854
127 2 4.25158 -7.73178 -60.4296
160 11 5.39761 -27.6155 -58.3894
99 6 15.0043 -28.5838 -58.1704
161 11 4.85603 -26.2761 -61.2711
100 2 9.93692 -25.6585 -60.8819
98 8 12.8521 -26.6718 -59.0509
154 1 1.81345 -21.2051 -58.6194
101 2 11.4228 -22.2339 -59.9922
102 7 10.1018 -20.3991 -59.0726
103 2 16.2275 -23.6201 -55.3365
157 7 5.08031 -16.9358 -59.9286
77 10 16.6633 -16.9942 -61.0088
78 2 14.9049 -18.0014 -58.3371
135 11 0.996755 -14.5276 -60.4758
74 2 16.8159 -13.0412 -58.7333
81 11 21.0707 -16.5173 -58.7145
128 7 4.58696 -11.9645 -58.3165
129 2 7.86196 -12.3936 -61.015
116 2 11.7988 -11.1463 -59.514
71 13 16.0793 -11.1274 -59.3784
126 1 3.45673 -8.4685 -60.5398
121 2 7.85832 -9.99657 -60.45
70 2 15.2706 -7.89074 -59.3766
158 2 5.7048 -24.5035 -57.0065
96 2 11.7729 -25.0056 -56.5833
97 3 9.49524 -26.8201 -55.4394
105 1 10.7819 -26.4127 -51.9687
153 6 -4.41749 -21.733 -57.6911
152 2 -2.70998 -23.2988 -56.5521
151 1 -1.2379 -24.1027 -56.8965
159 2 7.28612 -23.5745 -57.4619
104 6 -18.6572 -21.4155 -368.752
155 8 3.01041 -20.1656 -58.1095
156 2 5.84349 -18.9604 -57.8343
120 1 8.82973 -15.7918 -57.9122
79 3 17.8564 -18.7485 -56.0676
143 2 -3.16973 -16.9394 -55.1343
134 2 1.53219 -15.41 -56.4816
119 6 7.81124 -16.9076 -63.9211
117 3 10.3524 -7.01205 -58.1392
118 2 63.3534 -22.8296 248.725
80 2 20.7619 -15.8833 -55.0625
132 5 1.96209 -10.9663 -55.1109
130 11 4.58873 -12.1922 -58.1372
133 1 -0.10036 -9.02204 -55.0486
124 2 5.43019 -6.17136 -57.5071
66 2 13.7835 -6.89446 -55.0823
72 2 18.6588 -9.43833 -56.432
125 6 5.99798 -4.34385 -56.7159
73 11 18.9413 -6.30548 -55.0469
149 2 -1.08292 -27.3357 -54.2956
148 3 2.29999 -25.1204 -54.9995
145 9 -0.348951 -21.1335 -54.0235
146 10 2.00862 -20.9521 -54.2802
93 9 12.2138 -20.0063 -55.2561
92 2 12.5381 -22.9344 -55.8936
91 1 15.963 -20.8596 -52.4614
142 8 -1.92863 -16.066 -53.7778
144 9 -0.401235 -19.5724 -55.1595
138 2 7.07557 -21.062 -54.0809
94 9 11.2474 -16.8814 -55.1245
95 10 11.5677 -18.589 -55.3645
136 2 3.67258 -16.3254 -55.1282
140 2 0.613719 -14.769 -52.7899
137 11 5.53478 -13.823 -54.3068
82 2 17.2944 -17.2643 -54.0904
131 2 6.92933 -13.3705 -54.7479
65 11 13.0923 -12.6141 -55.0853
68 2 7.80521 -9.09049 -55.0476
69 3 9.16863 -6.76007 -54.2876
64 2 13.7981 -9.76842 -55.3142
63 11 16.8199 -9.1438 -52.404
67 7 14.4775 -3.86576 -55.0086
150 6 -1.74879 -27.6184 -52.967
88 1 15.0156 -26.3145 -49.6235
147 2 2.69927 -21.5754 -53.1674
90 6 16.9407 -22.3539 -51.9883
86 2 14.3673 -21.776 -49.3246
139 3 7.0715 -18.3434 -53.0585
83 2 11.2065 -22.2599 -52.1691
59 2 14.7051 -14.8365 -49.6794
84 8 48.193 -13.6298 -51.3616
141 3 2.49898 -12.6036 -51.4662
61 1 13.06 -10.8035 -50.7905
62 2 11.1022 -12.3864 -51.2352
1 1 0 0 -48.726
89 2 12.2059 -25.6628 -48.43
87 6 15.5234 -23.3841 -49.1406
85 6 11.479 -17.356 -51.4121
58 4 9.72066 -20.007 -49.2887
57 4 12.7152 -18.4188 -47.7265
60 6 16.3376 -12.7996 -49.2317
2 2 -0.750234 -0.871678 -48.8037
4 2 -4.0169 2.03461 -47.6272
36 2 6.29651 -20.4153 -45.3451
35 7 8.94676 -17.2799 -45.7983
56 12 11.1904 -20.1876 -47.5475
30 2 4.44085 -15.8478 -45.4237
31 9 6.67323 -15.7884 -45.663
37 11 10.6956 -14.9308 -46.576
38 8 15.5595 -14.9349 -44.7203
29 7 -3.09915 -13.3281 -44.4494
21 8 7.75219 -11.3801 -45.0871
47 6 22.5254 -12.6381 -44.8726
18 2 0.125026 -9.35048 -45.1021
40 2 11.5974 -8.60495 -46.2455
39 2 13.8272 -10.0485 -45.4923
41 2 15.7822 -10.2914 -44.3274
43 1 19.0933 -7.58433 -43.4257
46 2 22.2355 -10.1687 -45.945
9 2 -3.26233 -3.86956 -45.1176
10 5 2.62248 -5.90599 -45.3018
8 2 -2.30964 -2.27624 -44.2997
5 4 2.21443 0.250222 -46.3115
3 3 -1.04632 0.968596 -45.2336
6 4 4.63693 -0.302464 -47.1224
34 2 5.85084 -18.5588 -42.674
33 10 7.15644 -17.484 -42.0478
55 9 13.2134 -19.7711 -45.6728
51 3 18.9608 -18.2536 -41.8998
54 2 14.1584 -18.8453 -43.0799
28 2 -0.567586 -14.4912 -43.7146
27 4 0.878932 -14.575 -42.9861
32 9 7.67588 -15.3158 -42.5343
48 1 21.3898 -15.1633 -43.5777
49 2 24.5006 -15.558 -42.291
50 2 24.4167 -17.1401 -41.0749
19 8 4.12339 -11.6124 -43.6561
20 8 7.41718 -8.8473 -44.3205
22 6 10.3374 -12.033 -43.3972
14 1 2.21737 -6.9696 -39.7769
17 2 0.129162 -9.36175 -43.8643
7 4 2.16762 -1.76209 -45.1641
11 1 5.04258 -5.38086 -42.8548
12 2 5.86223 -4.55788 -41.3242
44 2 19.7814 -6.20055 -43.2311
45 2 22.483 -5.49057 -41.1934
25 4 1.90553 -13.1847 -40.4663
52 2 16.9303 -15.2541 -39.1818
26 4 -0.239225 -12.2296 -40.7864
23 2 5.78923 -11.5298 -39.0935
42 6 17.4259 -10.5047 -41.1432
24 2 4.87218 -10.5277 -38.7768
15 2 0.656084 -5.22062 -39.4139
13 6 7.82562 -4.87563 -38.9697
16 7 0.683394 -2.9061 -37.7315
53 7 17.9433 -13.7991 -37.345
ITEM: TIMESTEP
1500
ITEM: NUMBER OF ATOMS
161
ITEM: BOX BOUNDS pp pp pp
-3.0000000000000000e+01 3.0000000000000000e+01
-3.0000000000000000e+01 3.0000000000000000e+01
-1.7000000000000000e+02 1.7000000000000000e+02
ITEM: ATOMS id type xu yu zu
118 2 64.2319 -21.4978 253.445
110 2 12.8869 -24.4891 -65.9596
108 2 13.131 -22.9613 -64.7438
113 4 11.953 -17.379 -64.6685
161 11 4.81947 -26.2537 -61.4636
106 2 15.6319 -23.222 -62.5801
107 13 16.7106 -26.2563 -62.0587
109 3 10.1674 -22.0411 -64.2162
119 6 7.35785 -17.4275 -66.2138
111 4 13.7484 -18.9465 -64.2306
77 10 16.8723 -16.8998 -61.434
112 4 12.9307 -16.238 -62.7579
114 8 12.4074 -14.7613 -62.6145
76 9 17.434 -13.9194 -63.3585
75 9 17.1612 -14.8028 -61.5807
129 2 7.77507 -12.3978 -61.2517
115 2 13.0089 -11.2163 -62.7594
122 6 9.1648 -8.35349 -62.2568
123 1 8.89199 -6.60914 -63.4858
160 11 5.33618 -27.7787 -58.382
98 8 12.8187 -26.7771 -59.0716
99 6 14.93 -28.5802 -58.0875
100 2 9.99865 -25.7085 -61.0438
154 1 1.50069 -21.1693 -59.0153
155 8 2.90549 -20.3641 -58.6445
101 2 11.546 -22.1426 -60.4086
102 7 10.0573 -20.289 -59.5256
157 7 5.04114 -16.8725 -60.0945
156 2 5.72805 -19.0633 -58.3299
78 2 15.0693 -17.9623 -58.694
135 11 0.862336 -14.5441 -60.4987
120 1 8.96818 -15.7681 -58.6628
81 11 21.1335 -16.452 -58.7551
128 7 4.50801 -11.7273 -58.568
130 11 4.32016 -12.1572 -58.5736
121 2 7.64808 -10.5383 -61.3445
116 2 11.7797 -11.0608 -60.0468
71 13 16.1307 -11.162 -59.409
74 2 16.8223 -13.0296 -58.6921
127 2 4.06749 -8.03925 -60.2467
126 1 3.37514 -8.04485 -60.7239
117 3 10.729 -7.29255 -58.5004
70 2 15.2242 -7.86357 -59.3564
97 3 9.45023 -26.9469 -55.5254
151 1 -1.34025 -24.2631 -57.1646
148 3 2.32875 -25.1731 -55.0071
158 2 5.82826 -24.5137 -57.1465
159 2 7.21285 -23.6517 -57.8166
96 2 11.3802 -25.1252 -56.9002
103 2 14.0834 -24.7056 -53.9772
153 6 -4.16579 -21.3995 -57.8644
152 2 -2.85186 -23.5996 -56.7023
93 9 12.4783 -19.7607 -55.7125
92 2 11.444 -23.0205 -56.4555
143 2 -3.09526 -17.1523 -55.1677
144 9 -0.657308 -19.3877 -55.3341
94 9 11.7176 -16.821 -55.2639
95 10 11.3527 -18.4199 -55.5436
79 3 17.7706 -18.7852 -56.2907
134 2 1.66005 -15.3601 -56.6182
136 2 3.70376 -16.4695 -55.3163
131 2 6.77942 -13.2483 -55.005
80 2 20.7541 -15.8125 -55.0707
132 5 2.0802 -10.6658 -55.32
65 11 13.3111 -12.7795 -55.6725
133 1 -0.144831 -9.01099 -55.0841
68 2 8.09298 -8.98911 -55.0063
66 2 13.7095 -6.8133 -55.0115
64 2 13.5149 -9.65037 -55.6963
72 2 18.9207 -9.47053 -56.6905
124 2 5.45672 -6.09761 -57.4828
125 6 5.75641 -4.40811 -56.9702
67 7 14.4504 -4.02247 -55.0929
73 11 19.0634 -6.10695 -55.1296
149 2 -1.00872 -27.8971 -55.0062
150 6 -1.88676 -27.3344 -54.2236
105 1 7.41362 -25.9312 -50.7942
145 9 -0.0977605 -20.9204 -55.002
146 10 1.92532 -20.7653 -54.7047
147 2 2.59772 -21.8256 -54.2834
138 2 7.1233 -20.8116 -54.6602
83 2 11.5178 -22.0636 -52.5426
91 1 15.9856 -20.6805 -53.1632
90 6 17.5146 -22.3968 -52.649
139 3 6.80767 -18.7189 -54.4365
85 6 8.40701 -16.0725 -51.9838
82 2 16.3819 -16.9121 -54.9716
84 8 53.1018 -14.4258 -52.5184
142 8 -2.30723 -15.711 -54.6981
140 2 0.374684 -14.6512 -53.6318
137 11 5.80195 -14.0983 -55.0017
141 3 2.54612 -12.8941 -52.1021
69 3 9.08732 -6.60213 -54.8681
63 11 16.8013 -9.24953 -52.9594
89 2 12.428 -25.5465 -49.5384
88 1 15.138 -26.5531 -50.5629
87 6 15.8395 -23.4319 -50.1853
58 4 9.2433 -19.9621 -50.1959
86 2 13.843 -21.9866 -50.8088
59 2 14.7246 -15.0876 -50.7694
61 1 12.9366 -10.8962 -51.5899
62 2 11.2402 -12.104 -52.1164
60 6 16.2137 -12.6658 -50.4783
2 2 -1.19972 -0.888243 -50.0497
1 1 0 0 -48.726
36 2 6.62393 -20.3202 -46.6329
56 12 10.7176 -20.2358 -48.7595
35 7 8.98381 -16.7568 -47.1591
57 4 12.54 -18.3638 -49.5578
55 9 13.1021 -19.7872 -47.3165
30 2 4.16948 -15.9603 -46.9275
31 9 6.45464 -15.755 -46.9253
37 11 10.4457 -15.3412 -47.6359
21 8 7.76356 -11.3018 -46.2456
39 2 13.9235 -10.0951 -46.6467
46 2 22.2554 -10.1446 -47.1317
18 2 0.239725 -9.56915 -46.3508
40 2 11.6791 -8.48336 -47.4704
9 2 -2.74738 -4.02319 -46.3148
10 5 2.51029 -5.85455 -46.5305
7 4 2.9735 -1.63372 -46.7297
6 4 4.54976 -0.400097 -48.7857
4 2 -3.74895 2.03999 -48.8206
3 3 -1.23155 1.1291 -45.4535
5 4 1.8712 0.790508 -47.9872
34 2 6.21447 -18.5659 -43.9958
33 10 6.98593 -17.3202 -43.4629
54 2 14.1714 -18.8967 -44.3028
51 3 19.4501 -18.2917 -42.9551
28 2 -0.592358 -14.4641 -44.9802
27 4 0.853502 -14.4343 -44.3582
32 9 7.3567 -15.0961 -43.7896
38 8 15.3842 -14.9081 -46.02
48 1 21.3167 -14.9424 -44.9463
49 2 24.5383 -15.5523 -43.5622
29 7 -3.25105 -13.3226 -45.6725
19 8 4.12397 -11.5279 -45.115
22 6 10.4373 -11.9576 -44.4879
41 2 15.7262 -10.2995 -45.4233
47 6 22.4486 -12.6254 -46.1137
17 2 -0.0781307 -9.1487 -45.0467
20 8 7.43024 -8.71695 -45.5763
43 1 19.1262 -7.56548 -44.5668
11 1 4.98638 -5.20962 -44.1399
44 2 19.8189 -6.24904 -44.4656
8 2 -2.38486 -2.10305 -45.4724
50 2 23.8671 -17.3881 -42.0856
52 2 17.0331 -15.3554 -40.4564
26 4 -0.248285 -12.6004 -42.4312
25 4 2.06884 -13.1443 -41.8368
23 2 6.06265 -11.5556 -40.252
24 2 4.66533 -10.8027 -40.0768
42 6 17.4297 -10.4151 -42.4346
14 1 2.38023 -6.87753 -40.8334
15 2 0.680741 -5.21291 -40.6379
12 2 5.72442 -4.42127 -42.6632
13 6 7.41906 -5.05545 -40.1613
45 2 22.5455 -5.48233 -42.3222
53 7 17.9796 -13.7456 -38.5296
16 7 0.721392 -2.94413 -38.9329
104 6 -11.7489 -22.2411 -375.311
ITEM: TIMESTEP
2000
ITEM: NUMBER OF ATOMS
161
ITEM: BOX BOUNDS pp pp pp
-3.0000000000000000e+01 3.0000000000000000e+01
-3.0000000000000000e+01 3.0000000000000000e+01
-1.7000000000000000e+02 1.7000000000000000e+02
ITEM: ATOMS id type xu yu zu
118 2 64.8833 -20.4832 256.923
110 2 13.0554 -23.9932 -65.9682
108 2 13.0292 -23.2495 -64.6659
113 4 11.9059 -17.3231 -64.7454
161 11 4.77457 -26.2742 -61.5112
106 2 15.7413 -23.2708 -62.3173
107 13 16.7217 -26.3191 -62.0465
109 3 9.87866 -21.841 -64.4025
119 6 7.19809 -17.6789 -67.5471
111 4 13.6832 -19.119 -64.3281
77 10 16.9242 -16.909 -61.6502
112 4 12.9441 -16.3472 -62.8456
114 8 12.4484 -15.0031 -62.7135
76 9 17.4176 -14.0772 -63.4753
75 9 17.2419 -14.8057 -61.4819
129 2 7.60855 -12.4239 -61.482
115 2 12.9905 -11.201 -62.8293
122 6 9.09738 -8.36679 -62.5
123 1 8.89511 -6.49796 -63.5177
160 11 5.36573 -27.9348 -58.3179
98 8 12.924 -26.8471 -59.0838
99 6 14.9902 -28.5744 -58.073
100 2 9.90884 -25.7726 -61.5153
154 1 1.15255 -21.1086 -59.409
155 8 2.86223 -20.5378 -59.1402
101 2 11.6469 -21.97 -60.7376
102 7 9.96595 -20.2235 -59.8664
157 7 4.94085 -16.8518 -60.2648
156 2 5.50402 -19.0205 -58.9614
78 2 15.2436 -18.0277 -59.1031
135 11 0.682431 -14.571 -60.5851
120 1 9.08736 -15.8848 -59.2033
81 11 21.1349 -16.4061 -58.7963
128 7 4.37687 -11.5498 -58.8248
130 11 4.21411 -12.2167 -58.8412
121 2 7.42785 -10.8261 -62.099
116 2 11.6912 -11.0216 -60.5014
71 13 16.1357 -11.1499 -59.4629
74 2 16.9819 -12.9607 -58.7939
127 2 3.9685 -8.08779 -60.1651
126 1 3.32434 -7.7624 -60.82
117 3 10.9158 -7.49322 -58.7898
70 2 15.2106 -7.82561 -59.356
97 3 9.36613 -27.049 -55.5333
151 1 -1.42538 -24.4716 -57.2722
148 3 2.36264 -25.2598 -55.0019
158 2 5.90972 -24.582 -57.2011
159 2 6.97555 -23.6639 -58.2359
96 2 11.0808 -25.1333 -57.5797
103 2 12.7098 -25.7682 -54.0324
153 6 -3.96779 -21.2056 -58.0939
152 2 -2.86689 -23.6049 -56.8337
93 9 12.4507 -19.4687 -56.2666
92 2 11.1814 -23.1105 -56.8395
143 2 -3.00885 -17.5742 -55.3621
144 9 -0.776511 -19.4427 -55.3046
94 9 11.6101 -16.6474 -55.1321
95 10 11.2684 -18.195 -55.5173
79 3 17.8354 -18.625 -56.7012
134 2 1.87334 -15.333 -56.785
136 2 3.74174 -16.5785 -55.4277
131 2 6.61346 -12.9956 -55.2222
80 2 20.6798 -15.8597 -55.0962
132 5 2.07911 -10.3427 -55.5044
65 11 13.5307 -12.9317 -56.1931
133 1 -0.214168 -8.87269 -55.0056
68 2 8.37682 -8.93885 -54.9977
66 2 13.6357 -6.71557 -55.0136
64 2 13.2966 -9.54926 -56.1121
72 2 19.1609 -9.41131 -57.0062
124 2 5.4788 -6.13453 -57.4025
125 6 5.5248 -4.42761 -57.2837
67 7 14.4637 -4.09083 -55.0567
73 11 19.1899 -5.97366 -55.1785
149 2 -0.828581 -28.1863 -55.0081
150 6 -2.04153 -27.2702 -55.0131
105 1 5.43807 -25.5188 -50.4633
145 9 0.0133745 -20.998 -55.0039
146 10 1.882 -20.735 -55.0019
147 2 2.55307 -22.0032 -55.0039
138 2 7.03597 -20.6657 -54.999
83 2 11.8909 -21.8121 -53.1243
91 1 15.9768 -20.9934 -54.2081
90 6 17.4238 -22.7163 -53.6836
139 3 6.99323 -18.9013 -55.1065
85 6 6.68115 -15.8798 -52.2679
82 2 15.9365 -16.8093 -55.0485
84 8 55.4557 -14.4328 -52.8337
142 8 -2.02569 -15.6668 -55.4507
140 2 0.203279 -14.483 -54.5949
137 11 5.85019 -13.9184 -55.3375
141 3 2.45099 -13.233 -52.7602
69 3 9.06528 -6.44186 -55.0012
63 11 16.7255 -9.34611 -53.5065
89 2 12.402 -25.5263 -50.144
88 1 15.592 -26.7866 -51.1012
87 6 16.0875 -23.5881 -51.1463
58 4 9.08422 -19.4352 -51.5531
86 2 13.5891 -22.0099 -52.1489
59 2 14.6118 -15.1738 -51.5926
61 1 12.8075 -11.0127 -52.2077
62 2 11.2712 -11.8751 -52.9151
60 6 16.1043 -12.5156 -51.7045
2 2 -1.61556 -0.883704 -51.0475
1 1 0 0 -48.726
36 2 6.82817 -20.2786 -47.8662
56 12 10.72 -20.0405 -49.6846
35 7 9.04407 -16.4592 -48.3279
57 4 12.3029 -18.043 -51.3909
55 9 13.12 -19.4571 -48.8697
30 2 3.94539 -16.0402 -48.3842
31 9 6.15433 -15.607 -48.1391
37 11 10.2982 -15.5739 -48.604
21 8 7.80842 -11.191 -47.3356
39 2 14.0098 -10.1195 -47.7469
46 2 22.2755 -10.0963 -48.2889
18 2 0.398839 -9.66261 -47.6089
40 2 11.7149 -8.38036 -48.709
9 2 -2.25854 -4.14014 -47.4328
10 5 2.38933 -5.68937 -47.6839
7 4 3.8022 -1.47906 -48.4277
6 4 4.44072 -0.351818 -50.6343
4 2 -3.59167 2.05012 -50.0385
3 3 -1.73986 1.37832 -45.8255
5 4 1.8345 0.985245 -49.6787
34 2 6.55302 -18.6171 -45.3955
33 10 6.67318 -17.1354 -44.8774
54 2 14.1376 -18.8591 -45.5136
51 3 19.7703 -18.3469 -44.0316
28 2 -0.672497 -14.49 -46.3056
27 4 0.846438 -14.4568 -45.8317
32 9 6.98445 -14.9175 -45.1878
38 8 15.2122 -14.8964 -47.2021
48 1 21.3126 -14.7971 -46.2041
49 2 24.5808 -15.5396 -44.7655
29 7 -3.41291 -13.3096 -46.9776
19 8 4.11138 -11.4471 -46.5079
22 6 10.4098 -11.9482 -45.6273
41 2 15.655 -10.3123 -46.5164
47 6 22.4319 -12.6466 -47.2894
17 2 -0.192879 -8.96123 -46.1844
20 8 7.49851 -8.63195 -46.8325
43 1 19.1051 -7.48696 -45.5939
11 1 4.92768 -5.16036 -45.3459
44 2 19.8598 -6.27534 -45.6796
8 2 -2.35769 -1.99515 -46.5663
50 2 23.5151 -17.5778 -43.2009
52 2 17.1496 -15.4144 -41.7332
26 4 -0.203158 -12.8553 -44.0446
25 4 2.10595 -13.1059 -43.2596
23 2 6.167 -11.5166 -41.5501
24 2 4.44469 -11.0453 -41.366
42 6 17.4756 -10.2707 -43.7414
14 1 2.4657 -6.87536 -41.8691
15 2 0.736527 -5.24167 -41.9135
12 2 5.63284 -4.31122 -43.9614
13 6 7.05936 -5.18568 -41.3386
45 2 22.6486 -5.53314 -43.4299
53 7 18.0136 -13.7463 -39.7356
16 7 0.719978 -2.82239 -40.1436
104 6 -7.05996 -22.8915 -380.091
ITEM: TIMESTEP
2500
ITEM: NUMBER OF ATOMS
161
ITEM: BOX BOUNDS pp pp pp
-3.0000000000000000e+01 3.0000000000000000e+01
-3.0000000000000000e+01 3.0000000000000000e+01
-1.7000000000000000e+02 1.7000000000000000e+02
ITEM: ATOMS id type xu yu zu
118 2 65.3938 -19.706 259.642
119 6 7.19364 -17.7927 -68.2172
110 2 13.2285 -23.5352 -66.0037
109 3 9.70573 -21.8473 -64.6214
108 2 12.8725 -23.5081 -64.5783
113 4 11.841 -17.4001 -64.8792
111 4 13.5984 -19.241 -64.527
161 11 4.76139 -26.2258 -61.6393
100 2 9.82046 -25.8435 -61.8996
107 13 16.787 -26.291 -62.0343
106 2 15.8708 -23.3083 -62.0291
77 10 17.0671 -16.9587 -61.8428
112 4 12.8745 -16.4738 -62.9639
114 8 12.4787 -15.2304 -62.907
76 9 17.4055 -14.267 -63.5467
75 9 17.4372 -14.7405 -61.4595
129 2 7.46538 -12.4129 -61.7282
121 2 7.29916 -11.0057 -62.6974
115 2 13.0695 -11.2872 -62.933
122 6 8.99969 -8.39951 -62.7529
123 1 8.99001 -6.31787 -63.4595
160 11 5.30973 -28.0332 -58.3033
98 8 12.8498 -26.9039 -59.1624
99 6 14.9741 -28.5827 -58.0751
159 2 6.73483 -23.5893 -58.592
153 6 -3.79055 -21.1453 -58.2901
154 1 0.843834 -21.0629 -59.5651
155 8 2.67916 -20.6428 -59.2967
102 7 9.94514 -20.2855 -60.195
101 2 11.6729 -21.9081 -60.9622
157 7 4.87196 -16.8369 -60.433
156 2 5.37622 -19.1083 -59.3508
78 2 15.4113 -18.053 -59.4061
135 11 0.612786 -14.6546 -60.6545
120 1 9.12193 -16.0128 -59.769
81 11 21.1345 -16.4117 -58.7491
128 7 4.26308 -11.3653 -59.0466
130 11 4.10704 -12.2819 -59.1833
116 2 11.6459 -10.981 -60.8827
71 13 16.1572 -11.0913 -59.5524
74 2 17.311 -12.9435 -58.9143
126 1 3.21186 -7.40029 -60.9292
127 2 4.00645 -8.07154 -60.177
117 3 10.7628 -7.5229 -59.0257
70 2 15.2242 -7.80787 -59.2382
149 2 -0.670523 -28.4212 -55.0027
150 6 -2.16772 -27.2333 -55.0015
97 3 8.66249 -27.3868 -55.922
151 1 -1.5038 -24.6402 -57.3435
152 2 -2.95529 -23.569 -56.9398
148 3 2.35224 -25.3662 -55.003
158 2 5.93555 -24.6341 -57.2478
96 2 11.0647 -24.9836 -57.8861
145 9 0.131102 -21.1717 -54.9975
146 10 1.93077 -20.7642 -55.0017
147 2 2.48839 -22.1801 -55.0077
138 2 6.73339 -20.6688 -55.0039
92 2 10.8888 -23.3522 -57.1258
143 2 -2.99119 -17.8281 -55.4497
144 9 -0.813828 -19.4292 -55.1161
139 3 7.02699 -18.9854 -55.557
93 9 12.2305 -19.3379 -56.649
95 10 11.1558 -18.1077 -55.9096
82 2 15.8266 -17.1171 -55.2479
79 3 17.9721 -18.39 -57.0501
142 8 -2.10575 -15.6876 -56.4716
134 2 2.22315 -15.3758 -57.0075
140 2 0.278964 -14.337 -55.1407
136 2 3.60831 -16.7164 -55.8967
137 11 6.21187 -13.61 -55.6717
94 9 11.3101 -16.4862 -55.5541
80 2 20.662 -15.814 -55.072
132 5 2.1479 -10.0177 -55.5823
131 2 6.45628 -12.8169 -55.3873
65 11 13.6226 -13.174 -56.6565
133 1 -0.271255 -8.85407 -55.0021
68 2 8.65556 -8.87806 -55.0302
64 2 13.2139 -9.47176 -56.5752
66 2 13.6242 -6.61859 -55.0014
72 2 19.4654 -9.38727 -57.3045
124 2 5.5521 -6.31912 -57.3602
125 6 5.3951 -4.36653 -57.5377
69 3 9.14716 -6.26199 -55.0045
67 7 14.4677 -4.10842 -55.0642
73 11 19.3242 -5.88278 -55.2388
103 2 11.5935 -26.2905 -54.0022
83 2 12.4835 -22.0904 -53.7086
91 1 16.2442 -21.3832 -55.1655
86 2 13.3386 -22.0519 -53.5412
90 6 17.3268 -22.9567 -54.6406
58 4 9.67847 -19.1247 -52.5538
57 4 12.4331 -18.012 -52.3095
84 8 57.0836 -14.3616 -52.6958
85 6 5.75378 -16.1107 -52.8003
59 2 14.2639 -15.0739 -52.2261
141 3 2.32148 -13.4802 -53.4642
61 1 12.5295 -11.2187 -52.8861
62 2 11.2256 -11.5833 -53.6526
60 6 15.9992 -12.4626 -52.9046
63 11 16.6165 -9.46921 -54.1082
88 1 15.8529 -26.785 -52.0628
105 1 4.26376 -25.2786 -50.6563
89 2 12.7233 -25.2012 -50.3402
87 6 16.2559 -23.7791 -52.0414
56 12 10.8114 -19.8715 -50.768
55 9 13.2322 -19.26 -50.2823
30 2 3.62539 -16.2121 -49.5561
31 9 5.90765 -15.3099 -48.9047
35 7 9.06943 -16.1964 -49.5111
37 11 10.0738 -15.683 -49.5703
46 2 22.293 -10.0654 -49.4173
40 2 11.7249 -8.14869 -49.8205
2 2 -1.91933 -0.765931 -51.9516
7 4 4.00011 -1.28666 -50.349
6 4 4.30971 -0.208622 -52.5216
4 2 -3.28847 1.99416 -51.2651
1 1 0 0 -48.726
5 4 1.83581 1.07925 -51.3588
36 2 6.89371 -20.1902 -49.0565
34 2 6.81467 -18.6426 -46.686
33 10 6.43744 -16.9884 -46.1524
54 2 14.151 -18.9197 -46.7101
28 2 -0.781144 -14.4582 -47.5417
27 4 0.699916 -14.3741 -47.3144
32 9 6.66196 -14.8604 -46.4758
38 8 15.1418 -14.8476 -48.1225
48 1 21.2852 -14.7541 -47.5226
29 7 -3.55142 -13.2384 -48.2577