comment

236 atoms
248 bonds
233 angles
28 dihedrals
13 impropers

17 atom types
17 bond types
10 angle types
1 dihedral types
2 improper types

-40.5 40.5 xlo xhi
-40.5 40.5 ylo yhi
-190.0 190.0 zlo zhi

Masses

1 72.0
2 72.0
3 72.0
4 72.0
5 72.0
6 72.0
7 72.0
8 72.0
9 72.0
10 45.0
11 72.0
12 72.0
13 72.0
14 45.0
15 45.0
16 72.0
17 45.0

PairIJ Coeffs

1 1 1.19503 4.699999999999999
1 2 1.3384336 4.699999999999999
1 3 1.3384336 4.699999999999999
1 4 0.956024 4.699999999999999
1 5 0.478012 4.699999999999999
1 6 0.5497137999999999 4.699999999999999
1 7 0.836521 4.699999999999999
1 8 0.478012 4.699999999999999
1 9 1.19503 4.699999999999999
1 10 0.7409186 4.699999999999999
1 11 1.3384336 4.699999999999999
1 12 1.19503 4.699999999999999
1 13 0.7409186 4.699999999999999
1 14 0.6453162 4.699999999999999
1 15 1.19503 4.699999999999999
1 16 1.19503 4.699999999999999
1 17 0.956024 4.699999999999999
2 2 1.3384336 4.699999999999999
2 3 1.3384336 4.699999999999999
2 4 1.19503 4.699999999999999
2 5 0.5497137999999999 4.699999999999999
2 6 0.6453162 4.699999999999999
2 7 0.836521 4.699999999999999
2 8 0.478012 4.699999999999999
2 9 1.19503 4.699999999999999
2 10 0.7409186 4.699999999999999
2 11 1.3384336 4.699999999999999
2 12 1.19503 4.699999999999999
2 13 0.7409186 4.699999999999999
2 14 0.6453162 4.699999999999999
2 15 1.3384336 4.699999999999999
2 16 1.3384336 4.699999999999999
2 17 1.19503 4.699999999999999
3 3 1.19503 4.699999999999999
3 4 1.19503 4.699999999999999
3 5 0.478012 4.699999999999999
3 6 0.5497137999999999 4.699999999999999
3 7 0.836521 4.699999999999999
3 8 0.478012 4.699999999999999
3 9 0.956024 4.699999999999999
3 10 0.7409186 4.699999999999999
3 11 1.3384336 4.699999999999999
3 12 1.19503 4.699999999999999
3 13 0.7409186 4.699999999999999
3 14 0.6453162 4.699999999999999
3 15 1.19503 4.699999999999999
3 16 1.19503 4.699999999999999
3 17 1.19503 4.699999999999999
4 4 0.956024 4.699999999999999
4 5 0.6453162 4.699999999999999
4 6 0.6453162 4.699999999999999
4 7 0.836521 4.699999999999999
4 8 0.6453162 4.699999999999999
4 9 1.075527 4.699999999999999
4 10 0.836521 4.699999999999999
4 11 0.956024 4.699999999999999
4 12 1.075527 4.699999999999999
4 13 0.836521 4.699999999999999
4 14 0.7409186 4.699999999999999
4 15 1.075527 4.699999999999999
4 16 1.075527 4.699999999999999
4 17 0.956024 4.699999999999999
5 5 0.836521 4.699999999999999
5 6 0.836521 4.699999999999999
5 7 0.7409186 4.699999999999999
5 8 0.836521 4.699999999999999
5 9 0.6453162 4.699999999999999
5 10 0.7409186 4.699999999999999
5 11 0.5497137999999999 4.699999999999999
5 12 0.6453162 4.699999999999999
5 13 0.7409186 4.699999999999999
5 14 0.7409186 4.699999999999999
5 15 0.7409186 4.699999999999999
5 16 0.7409186 4.699999999999999
5 17 0.6453162 4.699999999999999
6 6 0.836521 4.699999999999999
6 7 0.836521 4.699999999999999
6 8 0.836521 4.699999999999999
6 9 0.6453162 4.699999999999999
6 10 0.836521 4.699999999999999
6 11 0.6453162 4.699999999999999
6 12 0.6453162 4.699999999999999
6 13 0.836521 4.699999999999999
6 14 0.836521 4.699999999999999
6 15 0.836521 4.699999999999999
6 16 0.836521 4.699999999999999
6 17 0.6453162 4.699999999999999
7 7 0.836521 4.699999999999999
7 8 0.6453162 4.699999999999999
7 9 0.836521 4.699999999999999
7 10 0.836521 4.699999999999999
7 11 0.836521 4.699999999999999
7 12 0.836521 4.699999999999999
7 13 0.836521 4.699999999999999
7 14 0.836521 4.699999999999999
7 15 0.956024 4.699999999999999
7 16 0.956024 4.699999999999999
7 17 0.836521 4.699999999999999
8 8 0.836521 4.699999999999999
8 9 0.6453162 4.699999999999999
8 10 0.7409186 4.699999999999999
8 11 0.478012 4.699999999999999
8 12 0.6453162 4.699999999999999
8 13 0.7409186 4.699999999999999
8 14 0.7409186 4.699999999999999
8 15 0.6453162 4.699999999999999
8 16 0.6453162 4.699999999999999
8 17 0.6453162 4.699999999999999
9 9 0.956024 4.699999999999999
9 10 0.836521 4.699999999999999
9 11 0.956024 4.699999999999999
9 12 1.075527 4.699999999999999
9 13 0.836521 4.699999999999999
9 14 0.7409186 4.699999999999999
9 15 1.075527 4.699999999999999
9 16 1.075527 4.699999999999999
9 17 1.075527 4.699999999999999
10 10 0.62739075 4.3
10 11 0.7409186 4.699999999999999
10 12 0.836521 4.699999999999999
10 13 0.836521 4.699999999999999
10 14 0.62739075 4.3
10 15 0.62739075 4.3
10 16 0.836521 4.699999999999999
10 17 0.62739075 4.3
11 11 1.19503 4.699999999999999
11 12 0.956024 4.699999999999999
11 13 0.7409186 4.699999999999999
11 14 0.6453162 4.699999999999999
11 15 1.075527 4.699999999999999
11 16 1.075527 4.699999999999999
11 17 0.956024 4.699999999999999
12 12 1.075527 4.699999999999999
12 13 0.836521 4.699999999999999
12 14 0.7409186 4.699999999999999
12 15 1.075527 4.699999999999999
12 16 1.075527 4.699999999999999
12 17 1.075527 4.699999999999999
13 13 0.836521 4.699999999999999
13 14 0.836521 4.699999999999999
13 15 0.836521 4.699999999999999
13 16 0.836521 4.699999999999999
13 17 0.836521 4.699999999999999
14 14 0.62739075 4.3
14 15 0.62739075 4.3
14 16 0.836521 4.699999999999999
14 17 0.5556889500000001 4.3
15 15 0.80664525 4.3
15 16 1.075527 4.699999999999999
15 17 0.80664525 4.3
16 16 1.075527 4.699999999999999
16 17 1.075527 4.699999999999999
17 17 0.7170179999999999 4.3

Bond Coeffs

1 1.4937875 3.5
2 8.962725 3.2
3 5.97515 4.0
4 5.97515 3.3000000000000003
5 5.97515 2.8000000000000003
6 8.962725 3.1
7 8.962725 3.0
8 5.97515 3.2
9 8.962725 3.3000000000000003
10 5.97515 3.4000000000000004
11 5.97515 3.0
12 2.987575 4.0
13 11.9503 3.3000000000000003
14 11.9503 3.1
15 11.9503 2.6500000000000004
16 11.9503 2.7
17 11.9503 2.6

Angle Coeffs

1 2.39006 127
2 83.6521 96
3 2.39006 100
4 2.39006 130
5 11.9503 98
6 2.987575 100
7 2.987575 180
8 5.97515 150
9 5.97515 210
10 5.97515 90

Dihedral Coeffs

1 95.6024 1 -120 0

Improper Coeffs

1 5.97515 0
2 23.9006 0

Atoms

1 1 1 1.0000 -0.0 -0.0 -49.5
2 1 2 0.0000 0.75 2.931 -50.405
3 1 3 -1.0000 2.212 3.318 -53.207
4 1 4 0.0000 2.809 5.003 -48.7
5 1 5 0.0000 3.822 3.684 -46.71
6 1 4 0.0000 3.203 7.332 -51.012
7 1 3 -1.0000 6.558 5.796 -52.568
8 1 4 0.0000 0.281 7.66 -51.798
9 1 6 0.0000 -0.16 5.716 -54.506
10 1 1 1.0000 -0.159 4.252 -57.301
11 1 4 0.0000 -0.664 8.26 -48.971
12 1 7 0.0000 0.895 10.928 -48.404
13 1 6 0.0000 3.805 11.364 -47.596
14 1 1 1.0000 6.176 13.353 -47.432
15 1 7 0.0000 -0.56 12.671 -50.507
16 1 6 0.0000 0.185 12.847 -53.538
17 1 1 1.0000 1.068 12.636 -56.344
18 1 7 0.0000 -3.399 12.535 -49.32
19 1 8 0.0000 -4.772 9.879 -50.457
20 1 9 0.0000 -2.66 13.74 -46.701
21 1 10 0.0000 -1.269 12.967 -44.441
22 1 10 0.0000 -2.522 12.727 -42.5
23 1 10 0.0000 -1.142 14.247 -42.053
24 1 9 0.0000 -1.591 16.614 -47.547
25 1 5 0.0000 0.918 16.512 -48.547
26 1 9 0.0000 -4.348 17.172 -49.217
27 1 11 0.0000 -2.848 16.163 -52.912
28 1 9 0.0000 -6.653 16.32 -46.724
29 1 6 0.0000 -7.856 14.472 -48.983
30 1 1 1.0000 -9.129 12.737 -51.225
31 1 12 0.0000 -5.233 16.548 -43.565
32 1 13 0.0000 -5.809 13.582 -44.071
33 1 7 0.0000 -2.584 18.624 -43.255
34 1 12 0.0000 -4.786 21.198 -42.126
35 1 11 0.0000 -7.486 22.795 -44.434
36 1 12 0.0000 -5.599 19.506 -39.124
37 1 13 0.0000 -8.264 20.471 -40.383
38 1 2 0.0000 -2.829 17.608 -38.996
39 1 14 0.0000 -4.702 15.759 -38.516
40 1 15 0.0000 -7.078 15.311 -38.611
41 1 15 0.0000 -6.388 15.266 -37.011
42 1 2 0.0000 -0.545 15.614 -37.165
43 1 16 0.0000 1.131 17.723 -36.363
44 1 2 0.0000 2.082 12.883 -36.843
45 1 5 0.0000 1.32 12.119 -39.152
46 1 2 0.0000 4.276 13.763 -34.981
47 1 3 -1.0000 5.158 16.069 -36.93
48 1 12 0.0000 6.18 13.823 -32.393
49 1 6 0.0000 7.492 11.268 -30.83
50 1 1 1.0000 8.056 10.541 -28.192
51 1 12 0.0000 5.035 16.33 -30.525
52 1 2 0.0000 3.063 17.445 -32.244
53 1 2 0.0000 0.564 19.555 -33.069
54 1 6 0.0000 1.314 22.329 -33.849
55 1 1 1.0000 1.485 24.018 -36.44
56 1 2 0.0000 -2.443 21.007 -32.557
57 1 14 0.0000 -3.382 19.284 -30.58
58 1 15 0.0000 -3.162 17.804 -28.669
59 1 15 0.0000 -2.525 17.147 -30.15
60 1 2 0.0000 -4.923 21.783 -34.424
61 1 6 0.0000 -2.51 21.73 -37.157
62 1 1 1.0000 -1.744 22.188 -39.9
63 1 2 0.0000 -7.997 21.535 -35.16
64 1 16 0.0000 -9.15 22.997 -37.187
65 1 2 0.0000 -6.747 18.835 -35.023
66 1 11 0.0000 -5.148 16.222 -33.857
67 1 6 0.0000 -7.076 15.641 -32.779
68 1 2 0.0000 -2.606 14.612 -33.144
69 1 2 0.0000 0.49 14.699 -32.813
70 1 2 0.0000 -1.494 11.217 -34.392
71 1 8 0.0000 -3.595 11.864 -36.781
72 1 12 0.0000 0.38 10.036 -32.579
73 1 14 0.0000 3.033 10.225 -32.688
74 1 15 0.0000 4.457 8.45 -31.989
75 1 15 0.0000 4.859 9.117 -33.571
76 1 12 0.0000 -0.524 6.699 -31.671
77 1 2 0.0000 -3.387 5.586 -32.741
78 1 8 0.0000 -4.937 7.361 -34.925
79 1 12 0.0000 -2.748 2.612 -32.97
80 1 10 0.0000 -2.557 1.902 -36.11
81 1 10 0.0000 -2.371 3.555 -37.747
82 1 10 0.0000 -3.309 1.955 -38.724
83 1 12 0.0000 -4.487 0.866 -30.228
84 1 2 0.0000 -6.259 3.193 -29.649
85 1 7 0.0000 -4.524 5.676 -28.338
86 1 1 1.0000 -3.207 8.521 -29.579
87 1 2 0.0000 -8.542 5.062 -28.463
88 1 6 0.0000 -10.264 2.81 -26.668
89 1 1 1.0000 -11.534 -0.036 -26.392
90 1 12 0.0000 -10.857 7.284 -28.54
91 1 16 0.0000 -12.82 6.41 -30.119
92 1 12 0.0000 -10.045 10.429 -27.488
93 1 2 0.0000 -6.416 10.204 -26.712
94 1 11 0.0000 -8.1 7.989 -24.639
95 1 11 0.0000 -5.121 13.026 -27.311
96 1 7 0.0000 -3.176 14.762 -25.294
97 1 6 0.0000 -1.964 13.08 -24.83
98 1 12 0.0000 -4.479 18.181 -25.171
99 1 2 0.0000 -7.237 17.522 -26.488
100 1 10 0.0000 -7.183 18.049 -29.592
101 1 10 0.0000 -9.261 17.362 -30.334
102 1 10 0.0000 -8.88 19.066 -31.46
103 1 2 0.0000 -10.552 18.695 -27.291
104 1 16 0.0000 -10.808 20.256 -25.092
105 1 2 0.0000 -13.187 16.687 -27.365
106 1 14 0.0000 -11.368 14.316 -28.823
107 1 14 0.0000 -9.294 13.91 -27.907
108 1 15 0.0000 -8.436 13.013 -29.844
109 1 2 0.0000 -15.783 15.336 -28.138
110 1 16 0.0000 -16.943 16.024 -30.427
111 1 4 0.0000 -17.894 13.122 -26.676
112 1 3 -1.0000 -19.134 14.841 -24.083
113 1 7 0.0000 -18.515 11.492 -29.349
114 1 12 0.0000 -15.191 10.694 -29.41
115 1 2 0.0000 -13.293 11.635 -31.453
116 1 12 0.0000 -14.541 9.713 -26.552
117 1 6 0.0000 -13.87 11.843 -24.381
118 1 1 1.0000 -12.98 14.197 -22.868
119 1 9 0.0000 -17.185 7.447 -26.448
120 1 2 0.0000 -18.594 9.453 -24.285
121 1 2 0.0000 -17.144 5.405 -28.788
122 1 6 0.0000 -16.95 5.791 -31.628
123 1 1 1.0000 -18.963 4.282 -33.602
124 1 2 0.0000 -15.136 2.916 -27.813
125 1 2 0.0000 -12.882 2.177 -29.858
126 1 8 0.0000 -14.265 1.804 -32.227
127 1 2 0.0000 -10.26 0.783 -31.832
128 1 16 0.0000 -8.706 -0.615 -30.007
129 1 2 0.0000 -7.547 1.607 -33.688
130 1 14 0.0000 -8.646 4.62 -34.267
131 1 17 0.0000 -9.215 6.446 -33.396
132 1 10 0.0000 -10.998 5.081 -35.905
133 1 10 0.0000 -11.549 6.954 -35.068
134 1 2 0.0000 -7.554 0.29 -37.037
135 1 6 0.0000 -8.124 -2.49 -35.595
136 1 1 1.0000 -9.852 -3.863 -33.592
137 1 4 0.0000 -7.977 -0.533 -40.216
138 1 3 -1.0000 -4.364 -2.439 -41.381
139 1 4 0.0000 -11.094 -1.184 -39.851
140 1 3 -1.0000 -11.365 -3.892 -41.791
141 1 4 0.0000 -12.066 1.453 -38.453
142 1 16 0.0000 -11.822 0.604 -35.896
143 1 12 0.0000 -10.815 3.427 -40.465
144 1 8 0.0000 -7.831 4.44 -39.054
145 1 9 0.0000 -12.188 2.493 -43.072
146 1 13 0.0000 -10.344 0.547 -45.379
147 1 9 0.0000 -15.148 3.376 -42.159
148 1 3 -1.0000 -17.622 0.823 -40.021
149 1 9 0.0000 -14.723 6.296 -41.219
150 1 14 0.0000 -13.037 7.127 -39.044
151 1 14 0.0000 -14.082 8.784 -37.788
152 1 15 0.0000 -12.254 10.218 -37.943
153 1 12 0.0000 -13.245 7.609 -43.798
154 1 8 0.0000 -10.038 7.627 -43.003
155 1 12 0.0000 -15.894 7.399 -45.421
156 1 3 -1.0000 -17.537 4.233 -46.895
157 1 2 0.0000 -17.839 8.504 -42.775
158 1 2 0.0000 -20.435 9.302 -43.924
159 1 7 0.0000 -17.355 10.283 -40.068
160 1 6 0.0000 -15.686 11.316 -41.819
161 1 12 0.0000 -20.366 11.239 -39.167
162 1 6 0.0000 -20.017 14.09 -40.154
163 1 1 1.0000 -18.186 15.97 -41.375
164 1 12 0.0000 -21.471 8.343 -39.094
165 1 6 0.0000 -22.879 7.074 -41.131
166 1 1 1.0000 -25.894 6.316 -41.624
167 1 12 0.0000 -19.502 7.147 -36.913
168 1 14 0.0000 -17.701 5.086 -37.705
169 1 14 0.0000 -15.888 4.558 -36.36
170 1 15 0.0000 -16.349 2.27 -36.373
171 1 2 0.0000 -19.277 10.35 -35.473
172 1 8 0.0000 -16.659 9.491 -34.045
173 1 7 0.0000 -21.777 11.67 -33.963
174 1 6 0.0000 -22.613 9.601 -34.697
175 1 12 0.0000 -20.798 14.983 -33.482
176 1 2 0.0000 -18.434 15.648 -34.839
177 1 16 0.0000 -16.625 13.937 -35.697
178 1 2 0.0000 -15.882 18.243 -35.609
179 1 6 0.0000 -15.0 19.253 -33.053
180 1 1 1.0000 -13.076 19.977 -30.739
181 1 2 0.0000 -15.172 16.751 -38.181
182 1 13 0.0000 -12.219 14.245 -39.035
183 1 2 0.0000 -14.937 18.342 -41.349
184 1 8 0.0000 -17.502 19.704 -40.294
185 1 2 0.0000 -15.444 15.687 -43.62
186 1 10 0.0000 -12.761 14.745 -44.086
187 1 10 0.0000 -11.342 15.217 -45.857
188 1 10 0.0000 -11.552 13.113 -45.837
189 1 11 0.0000 -16.523 13.917 -46.548
190 1 2 0.0000 -14.283 11.648 -47.341
191 1 2 0.0000 -13.351 8.416 -48.808
192 1 8 0.0000 -10.372 9.126 -48.402
193 1 2 0.0000 -14.692 6.644 -51.291
194 1 6 0.0000 -15.453 8.485 -53.834
195 1 1 1.0000 -14.752 10.904 -55.337
196 1 2 0.0000 -12.289 4.939 -52.118
197 1 6 0.0000 -11.99 5.864 -55.175
198 1 1 1.0000 -13.245 7.546 -57.182
199 1 4 0.0000 -10.639 2.202 -51.112
200 1 6 0.0000 -11.916 -0.675 -50.806
201 1 1 1.0000 -12.125 -3.685 -49.939
202 1 4 0.0000 -7.6 2.541 -52.008
203 1 16 0.0000 -7.799 1.546 -54.416
204 1 4 0.0000 -7.285 5.26 -50.634
205 1 3 -1.0000 -8.741 8.124 -53.451
206 1 4 0.0000 -7.713 4.28 -47.81
207 1 7 0.0000 -10.954 4.769 -47.199
208 1 1 1.0000 -13.753 3.19 -47.85
209 1 7 0.0000 -5.399 2.18 -47.882
210 1 3 -1.0000 -7.288 -1.265 -49.638
211 1 7 0.0000 -3.095 4.054 -48.375
212 1 3 -1.0000 -3.067 3.573 -51.832
213 1 7 0.0000 -3.466 5.945 -45.945
214 1 8 0.0000 -5.233 8.613 -45.783
215 1 7 0.0000 -3.107 3.716 -43.755
216 1 8 0.0000 -5.963 2.615 -43.029
217 1 13 0.0000 -0.303 2.648 -44.761
218 1 7 0.0000 0.952 5.689 -43.852
219 1 14 0.0000 1.639 7.923 -45.263
220 1 14 0.0000 0.857 9.84 -44.146
221 1 15 0.0000 2.995 10.729 -43.922
222 1 7 0.0000 -0.063 6.053 -40.87
223 1 8 0.0000 -2.996 7.685 -41.077
224 1 7 0.0000 1.348 3.562 -39.511
225 1 6 0.0000 0.074 0.675 -39.924
226 1 1 1.0000 -0.583 -2.306 -39.353
227 1 9 0.0000 4.109 4.658 -40.1
228 1 6 0.0000 5.583 4.45 -42.641
229 1 1 1.0000 7.406 6.234 -44.236
230 1 7 0.0000 3.852 7.949 -39.383
231 1 9 0.0000 2.423 7.181 -36.151
232 1 16 0.0000 0.069 7.14 -36.973
233 1 9 0.0000 4.971 5.2 -34.935
234 1 2 0.0000 4.525 2.66 -36.1
235 1 3 -1.0000 7.35 5.66 -36.722
236 1 3 -1.0000 8.597 7.676 -33.127

Bonds

1 1 1 2
2 1 31 33
3 1 33 34
4 1 34 36
5 1 36 38
6 1 38 42
7 1 42 44
8 1 44 46
9 1 46 48
10 1 48 51
11 1 51 52
12 1 52 53
13 1 53 56
14 1 56 60
15 1 60 63
16 1 63 65
17 1 65 66
18 1 66 68
19 1 68 70
20 1 70 72
21 1 72 76
22 1 76 77
23 1 77 79
24 1 79 83
25 1 83 84
26 1 84 87
27 1 87 90
28 1 90 92
29 1 92 93
30 1 93 95
31 1 95 96
32 1 96 98
33 1 98 99
34 1 99 103
35 1 103 105
36 1 105 109
37 1 121 124
38 1 124 125
39 1 125 127
40 1 127 129
41 1 129 134
42 1 153 155
43 1 155 157
44 1 171 173
45 1 173 175
46 1 175 176
47 1 176 178
48 1 178 181
49 1 181 183
50 1 183 185
51 1 185 189
52 1 189 190
53 1 190 191
54 1 191 193
55 1 193 196
56 2 2 3
57 3 6 7
58 4 8 9
59 5 9 10
60 4 12 13
61 5 13 14
62 4 15 16
63 5 16 17
64 6 20 21
65 3 26 27
66 4 28 29
67 5 29 30
68 6 31 32
69 3 34 35
70 6 36 37
71 2 38 39
72 3 46 47
73 4 48 49
74 5 49 50
75 4 53 54
76 5 54 55
77 2 56 57
78 4 60 61
79 5 61 62
80 7 66 67
81 8 68 69
82 9 70 71
83 2 72 73
84 9 77 78
85 6 79 80
86 4 84 85
87 10 85 86
88 4 87 88
89 5 88 89
90 3 93 94
91 7 96 97
92 6 99 100
93 8 105 106
94 2 111 112
95 8 114 115
96 4 116 117
97 5 117 118
98 8 119 120
99 4 121 122
100 5 122 123
101 11 129 130
102 4 134 135
103 5 135 136
104 3 137 138
105 3 139 140
106 9 143 144
107 12 145 146
108 3 147 148
109 8 149 150
110 9 153 154
111 3 155 156
112 8 157 158
113 7 159 160
114 4 161 162
115 5 162 163
116 4 164 165
117 5 165 166
118 8 167 168
119 7 173 174
120 4 178 179
121 5 179 180
122 12 181 182
123 6 185 186
124 4 193 194
125 5 194 195
126 4 196 197
127 5 197 198
128 4 199 200
129 5 200 201
130 3 204 205
131 4 206 207
132 10 207 208
133 3 209 210
134 2 211 212
135 9 213 214
136 8 218 219
137 9 222 223
138 4 224 225
139 5 225 226
140 4 227 228
141 5 228 229
142 8 233 234
143 3 235 236
144 13 2 4
145 14 4 6
146 14 6 8
147 14 8 11
148 14 11 12
149 14 12 15
150 14 15 18
151 14 18 20
152 14 20 24
153 14 24 26
154 14 26 28
155 13 28 31
156 13 109 111
157 14 111 113
158 14 113 114
159 14 114 116
160 14 116 119
161 13 119 121
162 13 134 137
163 14 137 139
164 14 139 141
165 14 141 143
166 14 143 145
167 14 145 147
168 14 147 149
169 13 149 153
170 13 157 159
171 14 159 161
172 14 161 164
173 14 164 167
174 13 167 171
175 13 196 199
176 14 199 202
177 14 202 204
178 14 204 206
179 14 206 209
180 14 209 211
181 14 211 213
182 14 213 215
183 14 215 217
184 14 217 218
185 14 218 222
186 14 222 224
187 14 224 227
188 14 227 230
189 14 230 231
190 14 231 233
191 13 233 235
192 15 4 5
193 14 18 19
194 16 21 22
195 16 21 23
196 16 22 23
197 15 24 25
198 16 39 40
199 16 39 41
200 16 40 41
201 17 42 43
202 15 44 45
203 16 57 58
204 16 57 59
205 16 58 59
206 17 63 64
207 16 73 74
208 16 73 75
209 16 74 75
210 16 80 81
211 16 80 82
212 16 81 82
213 17 90 91
214 16 100 101
215 16 100 102
216 16 101 102
217 17 103 104
218 16 106 107
219 16 106 108
220 16 107 108
221 17 109 110
222 14 125 126
223 17 127 128
224 16 130 131
225 16 130 132
226 16 131 132
227 16 131 133
228 16 132 133
229 17 141 142
230 16 150 151
231 16 150 152
232 16 151 152
233 16 168 169
234 16 168 170
235 16 169 170
236 14 171 172
237 17 176 177
238 14 183 184
239 16 186 187
240 16 186 188
241 16 187 188
242 14 191 192
243 17 202 203
244 14 215 216
245 16 219 220
246 16 219 221
247 16 220 221
248 17 231 232

Angles

1 1 1 2 4
2 1 2 4 6
3 2 4 6 8
4 2 6 8 11
5 2 8 11 12
6 2 11 12 15
7 2 12 15 18
8 2 15 18 20
9 2 18 20 24
10 2 20 24 26
11 2 24 26 28
12 3 26 28 31
13 3 28 31 33
14 3 31 33 34
15 3 33 34 36
16 3 34 36 38
17 3 36 38 42
18 1 38 42 44
19 1 42 44 46
20 3 44 46 48
21 3 46 48 51
22 3 48 51 52
23 3 51 52 53
24 1 52 53 56
25 1 53 56 60
26 1 56 60 63
27 1 60 63 65
28 4 63 65 66
29 1 65 66 68
30 1 66 68 70
31 3 68 70 72
32 3 70 72 76
33 3 72 76 77
34 3 76 77 79
35 3 77 79 83
36 3 79 83 84
37 3 83 84 87
38 3 84 87 90
39 3 87 90 92
40 3 90 92 93
41 3 92 93 95
42 1 93 95 96
43 3 95 96 98
44 3 96 98 99
45 3 98 99 103
46 1 99 103 105
47 1 103 105 109
48 1 105 109 111
49 1 109 111 113
50 2 111 113 114
51 2 113 114 116
52 2 114 116 119
53 1 116 119 121
54 1 119 121 124
55 1 121 124 125
56 1 124 125 127
57 1 125 127 129
58 1 127 129 134
59 1 129 134 137
60 4 134 137 139
61 2 137 139 141
62 2 139 141 143
63 2 141 143 145
64 2 143 145 147
65 2 145 147 149
66 3 147 149 153
67 3 149 153 155
68 3 153 155 157
69 3 155 157 159
70 5 157 159 161
71 5 159 161 164
72 2 161 164 167
73 4 164 167 171
74 4 167 171 173
75 3 171 173 175
76 3 173 175 176
77 3 175 176 178
78 1 176 178 181
79 1 178 181 183
80 1 181 183 185
81 1 183 185 189
82 1 185 189 190
83 1 189 190 191
84 1 190 191 193
85 1 191 193 196
86 1 193 196 199
87 4 196 199 202
88 2 199 202 204
89 2 202 204 206
90 2 204 206 209
91 2 206 209 211
92 2 209 211 213
93 2 211 213 215
94 2 213 215 217
95 2 215 217 218
96 2 217 218 222
97 2 218 222 224
98 2 222 224 227
99 2 224 227 230
100 2 227 230 231
101 2 230 231 233
102 1 231 233 235
103 6 1 2 3
104 6 2 4 5
105 6 4 6 7
106 6 6 8 9
107 6 11 12 13
108 6 12 15 16
109 6 15 18 19
110 6 18 20 21
111 6 20 24 25
112 6 24 26 27
113 6 26 28 29
114 6 28 31 32
115 6 33 34 35
116 6 34 36 37
117 6 36 38 39
118 6 38 42 43
119 6 42 44 45
120 6 44 46 47
121 6 46 48 49
122 6 52 53 54
123 6 53 56 57
124 6 56 60 61
125 6 60 63 64
126 6 65 66 67
127 6 66 68 69
128 6 68 70 71
129 6 70 72 73
130 6 76 77 78
131 6 77 79 80
132 6 83 84 85
133 6 84 87 88
134 6 87 90 91
135 6 92 93 94
136 6 95 96 97
137 6 98 99 100
138 6 99 103 104
139 6 103 105 106
140 6 105 109 110
141 6 109 111 112
142 6 113 114 115
143 6 114 116 117
144 6 116 119 120
145 6 119 121 122
146 6 124 125 126
147 6 125 127 128
148 6 127 129 130
149 6 129 134 135
150 6 134 137 138
151 6 137 139 140
152 6 139 141 142
153 6 141 143 144
154 6 143 145 146
155 6 145 147 148
156 6 147 149 150
157 6 149 153 154
158 6 153 155 156
159 6 155 157 158
160 6 157 159 160
161 6 159 161 162
162 6 161 164 165
163 6 164 167 168
164 6 167 171 172
165 6 171 173 174
166 6 175 176 177
167 6 176 178 179
168 6 178 181 182
169 6 181 183 184
170 6 183 185 186
171 6 190 191 192
172 6 191 193 194
173 6 193 196 197
174 6 196 199 200
175 6 199 202 203
176 6 202 204 205
177 6 204 206 207
178 6 206 209 210
179 6 209 211 212
180 6 211 213 214
181 6 213 215 216
182 6 217 218 219
183 6 218 222 223
184 6 222 224 225
185 6 224 227 228
186 6 230 231 232
187 6 231 233 234
188 6 233 235 236
189 7 8 9 10
190 7 12 13 14
191 7 15 16 17
192 8 20 21 22
193 8 20 21 23
194 7 28 29 30
195 8 38 39 40
196 8 38 39 41
197 7 48 49 50
198 7 53 54 55
199 8 56 57 58
200 8 56 57 59
201 7 60 61 62
202 8 72 73 74
203 8 72 73 75
204 8 79 80 81
205 8 79 80 82
206 7 84 85 86
207 7 87 88 89
208 8 99 100 101
209 8 99 100 102
210 8 105 106 107
211 8 105 106 108
212 7 116 117 118
213 7 121 122 123
214 9 129 130 131
215 10 129 130 132
216 7 134 135 136
217 8 149 150 151
218 8 149 150 152
219 7 161 162 163
220 7 164 165 166
221 8 167 168 169
222 8 167 168 170
223 7 178 179 180
224 8 185 186 187
225 8 185 186 188
226 7 193 194 195
227 7 196 197 198
228 7 199 200 201
229 7 206 207 208
230 8 218 219 220
231 8 218 219 221
232 7 224 225 226
233 7 227 228 229

Dihedrals

1 1 4 6 8 11
2 1 6 8 11 12
3 1 8 11 12 15
4 1 11 12 15 18
5 1 12 15 18 20
6 1 15 18 20 24
7 1 18 20 24 26
8 1 20 24 26 28
9 1 111 113 114 116
10 1 113 114 116 119
11 1 137 139 141 143
12 1 139 141 143 145
13 1 141 143 145 147
14 1 143 145 147 149
15 1 159 161 164 167
16 1 199 202 204 206
17 1 202 204 206 209
18 1 204 206 209 211
19 1 206 209 211 213
20 1 209 211 213 215
21 1 211 213 215 217
22 1 213 215 217 218
23 1 215 217 218 222
24 1 217 218 222 224
25 1 218 222 224 227
26 1 222 224 227 230
27 1 224 227 230 231
28 1 227 230 231 233

Impropers

1 1 20 22 23 21
2 1 38 40 41 39
3 1 56 58 59 57
4 1 72 74 75 73
5 1 79 81 82 80
6 1 99 101 102 100
7 1 105 107 108 106
8 1 129 131 132 130
9 2 130 131 133 132
10 1 149 151 152 150
11 1 167 169 170 168
12 1 185 187 188 186
13 1 218 220 221 219

