comment

236 atoms
248 bonds
233 angles
28 dihedrals
13 impropers

17 atom types
17 bond types
10 angle types
1 dihedral types
2 improper types

-40.5 40.5 xlo xhi
-40.5 40.5 ylo yhi
-190.0 190.0 zlo zhi

Masses

1 72.0
2 72.0
3 72.0
4 72.0
5 72.0
6 72.0
7 72.0
8 72.0
9 72.0
10 45.0
11 72.0
12 72.0
13 72.0
14 45.0
15 45.0
16 72.0
17 45.0

PairIJ Coeffs

1 1 1.19503 4.699999999999999
1 2 1.3384336 4.699999999999999
1 3 1.3384336 4.699999999999999
1 4 0.956024 4.699999999999999
1 5 0.478012 4.699999999999999
1 6 0.5497137999999999 4.699999999999999
1 7 0.836521 4.699999999999999
1 8 0.478012 4.699999999999999
1 9 1.19503 4.699999999999999
1 10 0.7409186 4.699999999999999
1 11 1.3384336 4.699999999999999
1 12 1.19503 4.699999999999999
1 13 0.7409186 4.699999999999999
1 14 0.6453162 4.699999999999999
1 15 1.19503 4.699999999999999
1 16 1.19503 4.699999999999999
1 17 0.956024 4.699999999999999
2 2 1.3384336 4.699999999999999
2 3 1.3384336 4.699999999999999
2 4 1.19503 4.699999999999999
2 5 0.5497137999999999 4.699999999999999
2 6 0.6453162 4.699999999999999
2 7 0.836521 4.699999999999999
2 8 0.478012 4.699999999999999
2 9 1.19503 4.699999999999999
2 10 0.7409186 4.699999999999999
2 11 1.3384336 4.699999999999999
2 12 1.19503 4.699999999999999
2 13 0.7409186 4.699999999999999
2 14 0.6453162 4.699999999999999
2 15 1.3384336 4.699999999999999
2 16 1.3384336 4.699999999999999
2 17 1.19503 4.699999999999999
3 3 1.19503 4.699999999999999
3 4 1.19503 4.699999999999999
3 5 0.478012 4.699999999999999
3 6 0.5497137999999999 4.699999999999999
3 7 0.836521 4.699999999999999
3 8 0.478012 4.699999999999999
3 9 0.956024 4.699999999999999
3 10 0.7409186 4.699999999999999
3 11 1.3384336 4.699999999999999
3 12 1.19503 4.699999999999999
3 13 0.7409186 4.699999999999999
3 14 0.6453162 4.699999999999999
3 15 1.19503 4.699999999999999
3 16 1.19503 4.699999999999999
3 17 1.19503 4.699999999999999
4 4 0.956024 4.699999999999999
4 5 0.6453162 4.699999999999999
4 6 0.6453162 4.699999999999999
4 7 0.836521 4.699999999999999
4 8 0.6453162 4.699999999999999
4 9 1.075527 4.699999999999999
4 10 0.836521 4.699999999999999
4 11 0.956024 4.699999999999999
4 12 1.075527 4.699999999999999
4 13 0.836521 4.699999999999999
4 14 0.7409186 4.699999999999999
4 15 1.075527 4.699999999999999
4 16 1.075527 4.699999999999999
4 17 0.956024 4.699999999999999
5 5 0.836521 4.699999999999999
5 6 0.836521 4.699999999999999
5 7 0.7409186 4.699999999999999
5 8 0.836521 4.699999999999999
5 9 0.6453162 4.699999999999999
5 10 0.7409186 4.699999999999999
5 11 0.5497137999999999 4.699999999999999
5 12 0.6453162 4.699999999999999
5 13 0.7409186 4.699999999999999
5 14 0.7409186 4.699999999999999
5 15 0.7409186 4.699999999999999
5 16 0.7409186 4.699999999999999
5 17 0.6453162 4.699999999999999
6 6 0.836521 4.699999999999999
6 7 0.836521 4.699999999999999
6 8 0.836521 4.699999999999999
6 9 0.6453162 4.699999999999999
6 10 0.836521 4.699999999999999
6 11 0.6453162 4.699999999999999
6 12 0.6453162 4.699999999999999
6 13 0.836521 4.699999999999999
6 14 0.836521 4.699999999999999
6 15 0.836521 4.699999999999999
6 16 0.836521 4.699999999999999
6 17 0.6453162 4.699999999999999
7 7 0.836521 4.699999999999999
7 8 0.6453162 4.699999999999999
7 9 0.836521 4.699999999999999
7 10 0.836521 4.699999999999999
7 11 0.836521 4.699999999999999
7 12 0.836521 4.699999999999999
7 13 0.836521 4.699999999999999
7 14 0.836521 4.699999999999999
7 15 0.956024 4.699999999999999
7 16 0.956024 4.699999999999999
7 17 0.836521 4.699999999999999
8 8 0.836521 4.699999999999999
8 9 0.6453162 4.699999999999999
8 10 0.7409186 4.699999999999999
8 11 0.478012 4.699999999999999
8 12 0.6453162 4.699999999999999
8 13 0.7409186 4.699999999999999
8 14 0.7409186 4.699999999999999
8 15 0.6453162 4.699999999999999
8 16 0.6453162 4.699999999999999
8 17 0.6453162 4.699999999999999
9 9 0.956024 4.699999999999999
9 10 0.836521 4.699999999999999
9 11 0.956024 4.699999999999999
9 12 1.075527 4.699999999999999
9 13 0.836521 4.699999999999999
9 14 0.7409186 4.699999999999999
9 15 1.075527 4.699999999999999
9 16 1.075527 4.699999999999999
9 17 1.075527 4.699999999999999
10 10 0.62739075 4.3
10 11 0.7409186 4.699999999999999
10 12 0.836521 4.699999999999999
10 13 0.836521 4.699999999999999
10 14 0.62739075 4.3
10 15 0.62739075 4.3
10 16 0.836521 4.699999999999999
10 17 0.62739075 4.3
11 11 1.19503 4.699999999999999
11 12 0.956024 4.699999999999999
11 13 0.7409186 4.699999999999999
11 14 0.6453162 4.699999999999999
11 15 1.075527 4.699999999999999
11 16 1.075527 4.699999999999999
11 17 0.956024 4.699999999999999
12 12 1.075527 4.699999999999999
12 13 0.836521 4.699999999999999
12 14 0.7409186 4.699999999999999
12 15 1.075527 4.699999999999999
12 16 1.075527 4.699999999999999
12 17 1.075527 4.699999999999999
13 13 0.836521 4.699999999999999
13 14 0.836521 4.699999999999999
13 15 0.836521 4.699999999999999
13 16 0.836521 4.699999999999999
13 17 0.836521 4.699999999999999
14 14 0.62739075 4.3
14 15 0.62739075 4.3
14 16 0.836521 4.699999999999999
14 17 0.5556889500000001 4.3
15 15 0.80664525 4.3
15 16 1.075527 4.699999999999999
15 17 0.80664525 4.3
16 16 1.075527 4.699999999999999
16 17 1.075527 4.699999999999999
17 17 0.7170179999999999 4.3

Bond Coeffs

1 1.4937875 3.5
2 8.962725 3.2
3 5.97515 4.0
4 5.97515 3.3000000000000003
5 5.97515 2.8000000000000003
6 8.962725 3.1
7 8.962725 3.0
8 5.97515 3.2
9 8.962725 3.3000000000000003
10 5.97515 3.4000000000000004
11 5.97515 3.0
12 2.987575 4.0
13 11.9503 3.3000000000000003
14 11.9503 3.1
15 11.9503 2.6500000000000004
16 11.9503 2.7
17 11.9503 2.6

Angle Coeffs

1 2.39006 127
2 83.6521 96
3 2.39006 100
4 2.39006 130
5 11.9503 98
6 2.987575 100
7 2.987575 180
8 5.97515 150
9 5.97515 210
10 5.97515 90

Dihedral Coeffs

1 95.6024 1 -120 0

Improper Coeffs

1 5.97515 0
2 23.9006 0

Atoms

1 1 1 1.0000 -7.35 -5.66 -61.778
2 1 2 0.0000 -6.6 -2.729 -62.683
3 1 3 -1.0000 -5.138 -2.342 -65.485
4 1 4 0.0000 -4.541 -0.657 -60.978
5 1 5 0.0000 -3.528 -1.976 -58.988
6 1 4 0.0000 -4.147 1.672 -63.29
7 1 3 -1.0000 -0.792 0.136 -64.846
8 1 4 0.0000 -7.069 2.0 -64.076
9 1 6 0.0000 -7.51 0.056 -66.784
10 1 1 1.0000 -7.509 -1.408 -69.579
11 1 4 0.0000 -8.014 2.6 -61.249
12 1 7 0.0000 -6.455 5.268 -60.682
13 1 6 0.0000 -3.545 5.704 -59.874
14 1 1 1.0000 -1.174 7.693 -59.71
15 1 7 0.0000 -7.91 7.011 -62.785
16 1 6 0.0000 -7.165 7.187 -65.816
17 1 1 1.0000 -6.282 6.976 -68.622
18 1 7 0.0000 -10.749 6.875 -61.598
19 1 8 0.0000 -12.122 4.219 -62.735
20 1 9 0.0000 -10.01 8.08 -58.979
21 1 10 0.0000 -8.619 7.307 -56.719
22 1 10 0.0000 -9.872 7.067 -54.778
23 1 10 0.0000 -8.492 8.587 -54.331
24 1 9 0.0000 -8.941 10.954 -59.825
25 1 5 0.0000 -6.432 10.852 -60.825
26 1 9 0.0000 -11.698 11.512 -61.495
27 1 11 0.0000 -10.198 10.503 -65.19
28 1 9 0.0000 -14.003 10.66 -59.002
29 1 6 0.0000 -15.206 8.812 -61.261
30 1 1 1.0000 -16.479 7.077 -63.503
31 1 12 0.0000 -12.583 10.888 -55.843
32 1 13 0.0000 -13.159 7.922 -56.349
33 1 7 0.0000 -9.934 12.964 -55.533
34 1 12 0.0000 -12.136 15.538 -54.404
35 1 11 0.0000 -14.836 17.135 -56.712
36 1 12 0.0000 -12.949 13.846 -51.402
37 1 13 0.0000 -15.614 14.811 -52.661
38 1 2 0.0000 -10.179 11.948 -51.274
39 1 14 0.0000 -12.052 10.099 -50.794
40 1 15 0.0000 -14.428 9.651 -50.889
41 1 15 0.0000 -13.738 9.606 -49.289
42 1 2 0.0000 -7.895 9.954 -49.443
43 1 16 0.0000 -6.219 12.063 -48.641
44 1 2 0.0000 -5.268 7.223 -49.121
45 1 5 0.0000 -6.03 6.459 -51.43
46 1 2 0.0000 -3.074 8.103 -47.259
47 1 3 -1.0000 -2.192 10.409 -49.208
48 1 12 0.0000 -1.17 8.163 -44.671
49 1 6 0.0000 0.142 5.608 -43.108
50 1 1 1.0000 0.706 4.881 -40.47
51 1 12 0.0000 -2.315 10.67 -42.803
52 1 2 0.0000 -4.287 11.785 -44.522
53 1 2 0.0000 -6.786 13.895 -45.347
54 1 6 0.0000 -6.036 16.669 -46.127
55 1 1 1.0000 -5.865 18.358 -48.718
56 1 2 0.0000 -9.793 15.347 -44.835
57 1 14 0.0000 -10.732 13.624 -42.858
58 1 15 0.0000 -10.512 12.144 -40.947
59 1 15 0.0000 -9.875 11.487 -42.428
60 1 2 0.0000 -12.273 16.123 -46.702
61 1 6 0.0000 -9.86 16.07 -49.435
62 1 1 1.0000 -9.094 16.528 -52.178
63 1 2 0.0000 -15.347 15.875 -47.438
64 1 16 0.0000 -16.5 17.337 -49.465
65 1 2 0.0000 -14.097 13.175 -47.301
66 1 11 0.0000 -12.498 10.562 -46.135
67 1 6 0.0000 -14.426 9.981 -45.057
68 1 2 0.0000 -9.956 8.952 -45.422
69 1 2 0.0000 -6.86 9.039 -45.091
70 1 2 0.0000 -8.844 5.557 -46.67
71 1 8 0.0000 -10.945 6.204 -49.059
72 1 12 0.0000 -6.97 4.376 -44.857
73 1 14 0.0000 -4.317 4.565 -44.966
74 1 15 0.0000 -2.893 2.79 -44.267
75 1 15 0.0000 -2.491 3.457 -45.849
76 1 12 0.0000 -7.874 1.039 -43.949
77 1 2 0.0000 -10.737 -0.074 -45.019
78 1 8 0.0000 -12.287 1.701 -47.203
79 1 12 0.0000 -10.098 -3.048 -45.248
80 1 10 0.0000 -9.907 -3.758 -48.388
81 1 10 0.0000 -9.721 -2.105 -50.025
82 1 10 0.0000 -10.659 -3.705 -51.002
83 1 12 0.0000 -11.837 -4.794 -42.506
84 1 2 0.0000 -13.609 -2.467 -41.927
85 1 7 0.0000 -11.874 0.016 -40.616
86 1 1 1.0000 -10.557 2.861 -41.857
87 1 2 0.0000 -15.892 -0.598 -40.741
88 1 6 0.0000 -17.614 -2.85 -38.946
89 1 1 1.0000 -18.884 -5.696 -38.67
90 1 12 0.0000 -18.207 1.624 -40.818
91 1 16 0.0000 -20.17 0.75 -42.397
92 1 12 0.0000 -17.395 4.769 -39.766
93 1 2 0.0000 -13.766 4.544 -38.99
94 1 11 0.0000 -15.45 2.329 -36.917
95 1 11 0.0000 -12.471 7.366 -39.589
96 1 7 0.0000 -10.526 9.102 -37.572
97 1 6 0.0000 -9.314 7.42 -37.108
98 1 12 0.0000 -11.829 12.521 -37.449
99 1 2 0.0000 -14.587 11.862 -38.766
100 1 10 0.0000 -14.533 12.389 -41.87
101 1 10 0.0000 -16.611 11.702 -42.612
102 1 10 0.0000 -16.23 13.406 -43.738
103 1 2 0.0000 -17.902 13.035 -39.569
104 1 16 0.0000 -18.158 14.596 -37.37
105 1 2 0.0000 -20.537 11.027 -39.643
106 1 14 0.0000 -18.718 8.656 -41.101
107 1 14 0.0000 -16.644 8.25 -40.185
108 1 15 0.0000 -15.786 7.353 -42.122
109 1 2 0.0000 -23.133 9.676 -40.416
110 1 16 0.0000 -24.293 10.364 -42.705
111 1 4 0.0000 -25.244 7.462 -38.954
112 1 3 -1.0000 -26.484 9.181 -36.361
113 1 7 0.0000 -25.865 5.832 -41.627
114 1 12 0.0000 -22.541 5.034 -41.688
115 1 2 0.0000 -20.643 5.975 -43.731
116 1 12 0.0000 -21.891 4.053 -38.83
117 1 6 0.0000 -21.22 6.183 -36.659
118 1 1 1.0000 -20.33 8.537 -35.146
119 1 9 0.0000 -24.535 1.787 -38.726
120 1 2 0.0000 -25.944 3.793 -36.563
121 1 2 0.0000 -24.494 -0.255 -41.066
122 1 6 0.0000 -24.3 0.131 -43.906
123 1 1 1.0000 -26.313 -1.378 -45.88
124 1 2 0.0000 -22.486 -2.744 -40.091
125 1 2 0.0000 -20.232 -3.483 -42.136
126 1 8 0.0000 -21.615 -3.856 -44.505
127 1 2 0.0000 -17.61 -4.877 -44.11
128 1 16 0.0000 -16.056 -6.275 -42.285
129 1 2 0.0000 -14.897 -4.053 -45.966
130 1 14 0.0000 -15.996 -1.04 -46.545
131 1 17 0.0000 -16.565 0.786 -45.674
132 1 10 0.0000 -18.348 -0.579 -48.183
133 1 10 0.0000 -18.899 1.294 -47.346
134 1 2 0.0000 -14.904 -5.37 -49.315
135 1 6 0.0000 -15.474 -8.15 -47.873
136 1 1 1.0000 -17.202 -9.523 -45.87
137 1 4 0.0000 -15.327 -6.193 -52.494
138 1 3 -1.0000 -11.714 -8.099 -53.659
139 1 4 0.0000 -18.444 -6.844 -52.129
140 1 3 -1.0000 -18.715 -9.552 -54.069
141 1 4 0.0000 -19.416 -4.207 -50.731
142 1 16 0.0000 -19.172 -5.056 -48.174
143 1 12 0.0000 -18.165 -2.233 -52.743
144 1 8 0.0000 -15.181 -1.22 -51.332
145 1 9 0.0000 -19.538 -3.167 -55.35
146 1 13 0.0000 -17.694 -5.113 -57.657
147 1 9 0.0000 -22.498 -2.284 -54.437
148 1 3 -1.0000 -24.972 -4.837 -52.299
149 1 9 0.0000 -22.073 0.636 -53.497
150 1 14 0.0000 -20.387 1.467 -51.322
151 1 14 0.0000 -21.432 3.124 -50.066
152 1 15 0.0000 -19.604 4.558 -50.221
153 1 12 0.0000 -20.595 1.949 -56.076
154 1 8 0.0000 -17.388 1.967 -55.281
155 1 12 0.0000 -23.244 1.739 -57.699
156 1 3 -1.0000 -24.887 -1.427 -59.173
157 1 2 0.0000 -25.189 2.844 -55.053
158 1 2 0.0000 -27.785 3.642 -56.202
159 1 7 0.0000 -24.705 4.623 -52.346
160 1 6 0.0000 -23.036 5.656 -54.097
161 1 12 0.0000 -27.716 5.579 -51.445
162 1 6 0.0000 -27.367 8.43 -52.432
163 1 1 1.0000 -25.536 10.31 -53.653
164 1 12 0.0000 -28.821 2.683 -51.372
165 1 6 0.0000 -30.229 1.414 -53.409
166 1 1 1.0000 -33.244 0.656 -53.902
167 1 12 0.0000 -26.852 1.487 -49.191
168 1 14 0.0000 -25.051 -0.574 -49.983
169 1 14 0.0000 -23.238 -1.102 -48.638
170 1 15 0.0000 -23.699 -3.39 -48.651
171 1 2 0.0000 -26.627 4.69 -47.751
172 1 8 0.0000 -24.009 3.831 -46.323
173 1 7 0.0000 -29.127 6.01 -46.241
174 1 6 0.0000 -29.963 3.941 -46.975
175 1 12 0.0000 -28.148 9.323 -45.76
176 1 2 0.0000 -25.784 9.988 -47.117
177 1 16 0.0000 -23.975 8.277 -47.975
178 1 2 0.0000 -23.232 12.583 -47.887
179 1 6 0.0000 -22.35 13.593 -45.331
180 1 1 1.0000 -20.426 14.317 -43.017
181 1 2 0.0000 -22.522 11.091 -50.459
182 1 13 0.0000 -19.569 8.585 -51.313
183 1 2 0.0000 -22.287 12.682 -53.627
184 1 8 0.0000 -24.852 14.044 -52.572
185 1 2 0.0000 -22.794 10.027 -55.898
186 1 10 0.0000 -20.111 9.085 -56.364
187 1 10 0.0000 -18.692 9.557 -58.135
188 1 10 0.0000 -18.902 7.453 -58.115
189 1 11 0.0000 -23.873 8.257 -58.826
190 1 2 0.0000 -21.633 5.988 -59.619
191 1 2 0.0000 -20.701 2.756 -61.086
192 1 8 0.0000 -17.722 3.466 -60.68
193 1 2 0.0000 -22.042 0.984 -63.569
194 1 6 0.0000 -22.803 2.825 -66.112
195 1 1 1.0000 -22.102 5.244 -67.615
196 1 2 0.0000 -19.639 -0.721 -64.396
197 1 6 0.0000 -19.34 0.204 -67.453
198 1 1 1.0000 -20.595 1.886 -69.46
199 1 4 0.0000 -17.989 -3.458 -63.39
200 1 6 0.0000 -19.266 -6.335 -63.084
201 1 1 1.0000 -19.475 -9.345 -62.217
202 1 4 0.0000 -14.95 -3.119 -64.286
203 1 16 0.0000 -15.149 -4.114 -66.694
204 1 4 0.0000 -14.635 -0.4 -62.912
205 1 3 -1.0000 -16.091 2.464 -65.729
206 1 4 0.0000 -15.063 -1.38 -60.088
207 1 7 0.0000 -18.304 -0.891 -59.477
208 1 1 1.0000 -21.103 -2.47 -60.128
209 1 7 0.0000 -12.749 -3.48 -60.16
210 1 3 -1.0000 -14.638 -6.925 -61.916
211 1 7 0.0000 -10.445 -1.606 -60.653
212 1 3 -1.0000 -10.417 -2.087 -64.11
213 1 7 0.0000 -10.816 0.285 -58.223
214 1 8 0.0000 -12.583 2.953 -58.061
215 1 7 0.0000 -10.457 -1.944 -56.033
216 1 8 0.0000 -13.313 -3.045 -55.307
217 1 13 0.0000 -7.653 -3.012 -57.039
218 1 7 0.0000 -6.398 0.029 -56.13
219 1 14 0.0000 -5.711 2.263 -57.541
220 1 14 0.0000 -6.493 4.18 -56.424
221 1 15 0.0000 -4.355 5.069 -56.2
222 1 7 0.0000 -7.413 0.393 -53.148
223 1 8 0.0000 -10.346 2.025 -53.355
224 1 7 0.0000 -6.002 -2.098 -51.789
225 1 6 0.0000 -7.276 -4.985 -52.202
226 1 1 1.0000 -7.933 -7.966 -51.631
227 1 9 0.0000 -3.241 -1.002 -52.378
228 1 6 0.0000 -1.767 -1.21 -54.919
229 1 1 1.0000 0.056 0.574 -56.514
230 1 7 0.0000 -3.498 2.289 -51.661
231 1 9 0.0000 -4.927 1.521 -48.429
232 1 16 0.0000 -7.281 1.48 -49.251
233 1 9 0.0000 -2.379 -0.46 -47.213
234 1 2 0.0000 -2.825 -3.0 -48.378
235 1 3 -1.0000 -0.0 -0.0 -49.0
236 1 3 -1.0000 1.247 2.016 -45.405

Bonds

1 1 1 2
2 1 31 33
3 1 33 34
4 1 34 36
5 1 36 38
6 1 38 42
7 1 42 44
8 1 44 46
9 1 46 48
10 1 48 51
11 1 51 52
12 1 52 53
13 1 53 56
14 1 56 60
15 1 60 63
16 1 63 65
17 1 65 66
18 1 66 68
19 1 68 70
20 1 70 72
21 1 72 76
22 1 76 77
23 1 77 79
24 1 79 83
25 1 83 84
26 1 84 87
27 1 87 90
28 1 90 92
29 1 92 93
30 1 93 95
31 1 95 96
32 1 96 98
33 1 98 99
34 1 99 103
35 1 103 105
36 1 105 109
37 1 121 124
38 1 124 125
39 1 125 127
40 1 127 129
41 1 129 134
42 1 153 155
43 1 155 157
44 1 171 173
45 1 173 175
46 1 175 176
47 1 176 178
48 1 178 181
49 1 181 183
50 1 183 185
51 1 185 189
52 1 189 190
53 1 190 191
54 1 191 193
55 1 193 196
56 2 2 3
57 3 6 7
58 4 8 9
59 5 9 10
60 4 12 13
61 5 13 14
62 4 15 16
63 5 16 17
64 6 20 21
65 3 26 27
66 4 28 29
67 5 29 30
68 6 31 32
69 3 34 35
70 6 36 37
71 2 38 39
72 3 46 47
73 4 48 49
74 5 49 50
75 4 53 54
76 5 54 55
77 2 56 57
78 4 60 61
79 5 61 62
80 7 66 67
81 8 68 69
82 9 70 71
83 2 72 73
84 9 77 78
85 6 79 80
86 4 84 85
87 10 85 86
88 4 87 88
89 5 88 89
90 3 93 94
91 7 96 97
92 6 99 100
93 8 105 106
94 2 111 112
95 8 114 115
96 4 116 117
97 5 117 118
98 8 119 120
99 4 121 122
100 5 122 123
101 11 129 130
102 4 134 135
103 5 135 136
104 3 137 138
105 3 139 140
106 9 143 144
107 12 145 146
108 3 147 148
109 8 149 150
110 9 153 154
111 3 155 156
112 8 157 158
113 7 159 160
114 4 161 162
115 5 162 163
116 4 164 165
117 5 165 166
118 8 167 168
119 7 173 174
120 4 178 179
121 5 179 180
122 12 181 182
123 6 185 186
124 4 193 194
125 5 194 195
126 4 196 197
127 5 197 198
128 4 199 200
129 5 200 201
130 3 204 205
131 4 206 207
132 10 207 208
133 3 209 210
134 2 211 212
135 9 213 214
136 8 218 219
137 9 222 223
138 4 224 225
139 5 225 226
140 4 227 228
141 5 228 229
142 8 233 234
143 3 235 236
144 13 2 4
145 14 4 6
146 14 6 8
147 14 8 11
148 14 11 12
149 14 12 15
150 14 15 18
151 14 18 20
152 14 20 24
153 14 24 26
154 14 26 28
155 13 28 31
156 13 109 111
157 14 111 113
158 14 113 114
159 14 114 116
160 14 116 119
161 13 119 121
162 13 134 137
163 14 137 139
164 14 139 141
165 14 141 143
166 14 143 145
167 14 145 147
168 14 147 149
169 13 149 153
170 13 157 159
171 14 159 161
172 14 161 164
173 14 164 167
174 13 167 171
175 13 196 199
176 14 199 202
177 14 202 204
178 14 204 206
179 14 206 209
180 14 209 211
181 14 211 213
182 14 213 215
183 14 215 217
184 14 217 218
185 14 218 222
186 14 222 224
187 14 224 227
188 14 227 230
189 14 230 231
190 14 231 233
191 13 233 235
192 15 4 5
193 14 18 19
194 16 21 22
195 16 21 23
196 16 22 23
197 15 24 25
198 16 39 40
199 16 39 41
200 16 40 41
201 17 42 43
202 15 44 45
203 16 57 58
204 16 57 59
205 16 58 59
206 17 63 64
207 16 73 74
208 16 73 75
209 16 74 75
210 16 80 81
211 16 80 82
212 16 81 82
213 17 90 91
214 16 100 101
215 16 100 102
216 16 101 102
217 17 103 104
218 16 106 107
219 16 106 108
220 16 107 108
221 17 109 110
222 14 125 126
223 17 127 128
224 16 130 131
225 16 130 132
226 16 131 132
227 16 131 133
228 16 132 133
229 17 141 142
230 16 150 151
231 16 150 152
232 16 151 152
233 16 168 169
234 16 168 170
235 16 169 170
236 14 171 172
237 17 176 177
238 14 183 184
239 16 186 187
240 16 186 188
241 16 187 188
242 14 191 192
243 17 202 203
244 14 215 216
245 16 219 220
246 16 219 221
247 16 220 221
248 17 231 232

Angles

1 1 1 2 4
2 1 2 4 6
3 2 4 6 8
4 2 6 8 11
5 2 8 11 12
6 2 11 12 15
7 2 12 15 18
8 2 15 18 20
9 2 18 20 24
10 2 20 24 26
11 2 24 26 28
12 3 26 28 31
13 3 28 31 33
14 3 31 33 34
15 3 33 34 36
16 3 34 36 38
17 3 36 38 42
18 1 38 42 44
19 1 42 44 46
20 3 44 46 48
21 3 46 48 51
22 3 48 51 52
23 3 51 52 53
24 1 52 53 56
25 1 53 56 60
26 1 56 60 63
27 1 60 63 65
28 4 63 65 66
29 1 65 66 68
30 1 66 68 70
31 3 68 70 72
32 3 70 72 76
33 3 72 76 77
34 3 76 77 79
35 3 77 79 83
36 3 79 83 84
37 3 83 84 87
38 3 84 87 90
39 3 87 90 92
40 3 90 92 93
41 3 92 93 95
42 1 93 95 96
43 3 95 96 98
44 3 96 98 99
45 3 98 99 103
46 1 99 103 105
47 1 103 105 109
48 1 105 109 111
49 1 109 111 113
50 2 111 113 114
51 2 113 114 116
52 2 114 116 119
53 1 116 119 121
54 1 119 121 124
55 1 121 124 125
56 1 124 125 127
57 1 125 127 129
58 1 127 129 134
59 1 129 134 137
60 4 134 137 139
61 2 137 139 141
62 2 139 141 143
63 2 141 143 145
64 2 143 145 147
65 2 145 147 149
66 3 147 149 153
67 3 149 153 155
68 3 153 155 157
69 3 155 157 159
70 5 157 159 161
71 5 159 161 164
72 2 161 164 167
73 4 164 167 171
74 4 167 171 173
75 3 171 173 175
76 3 173 175 176
77 3 175 176 178
78 1 176 178 181
79 1 178 181 183
80 1 181 183 185
81 1 183 185 189
82 1 185 189 190
83 1 189 190 191
84 1 190 191 193
85 1 191 193 196
86 1 193 196 199
87 4 196 199 202
88 2 199 202 204
89 2 202 204 206
90 2 204 206 209
91 2 206 209 211
92 2 209 211 213
93 2 211 213 215
94 2 213 215 217
95 2 215 217 218
96 2 217 218 222
97 2 218 222 224
98 2 222 224 227
99 2 224 227 230
100 2 227 230 231
101 2 230 231 233
102 1 231 233 235
103 6 1 2 3
104 6 2 4 5
105 6 4 6 7
106 6 6 8 9
107 6 11 12 13
108 6 12 15 16
109 6 15 18 19
110 6 18 20 21
111 6 20 24 25
112 6 24 26 27
113 6 26 28 29
114 6 28 31 32
115 6 33 34 35
116 6 34 36 37
117 6 36 38 39
118 6 38 42 43
119 6 42 44 45
120 6 44 46 47
121 6 46 48 49
122 6 52 53 54
123 6 53 56 57
124 6 56 60 61
125 6 60 63 64
126 6 65 66 67
127 6 66 68 69
128 6 68 70 71
129 6 70 72 73
130 6 76 77 78
131 6 77 79 80
132 6 83 84 85
133 6 84 87 88
134 6 87 90 91
135 6 92 93 94
136 6 95 96 97
137 6 98 99 100
138 6 99 103 104
139 6 103 105 106
140 6 105 109 110
141 6 109 111 112
142 6 113 114 115
143 6 114 116 117
144 6 116 119 120
145 6 119 121 122
146 6 124 125 126
147 6 125 127 128
148 6 127 129 130
149 6 129 134 135
150 6 134 137 138
151 6 137 139 140
152 6 139 141 142
153 6 141 143 144
154 6 143 145 146
155 6 145 147 148
156 6 147 149 150
157 6 149 153 154
158 6 153 155 156
159 6 155 157 158
160 6 157 159 160
161 6 159 161 162
162 6 161 164 165
163 6 164 167 168
164 6 167 171 172
165 6 171 173 174
166 6 175 176 177
167 6 176 178 179
168 6 178 181 182
169 6 181 183 184
170 6 183 185 186
171 6 190 191 192
172 6 191 193 194
173 6 193 196 197
174 6 196 199 200
175 6 199 202 203
176 6 202 204 205
177 6 204 206 207
178 6 206 209 210
179 6 209 211 212
180 6 211 213 214
181 6 213 215 216
182 6 217 218 219
183 6 218 222 223
184 6 222 224 225
185 6 224 227 228
186 6 230 231 232
187 6 231 233 234
188 6 233 235 236
189 7 8 9 10
190 7 12 13 14
191 7 15 16 17
192 8 20 21 22
193 8 20 21 23
194 7 28 29 30
195 8 38 39 40
196 8 38 39 41
197 7 48 49 50
198 7 53 54 55
199 8 56 57 58
200 8 56 57 59
201 7 60 61 62
202 8 72 73 74
203 8 72 73 75
204 8 79 80 81
205 8 79 80 82
206 7 84 85 86
207 7 87 88 89
208 8 99 100 101
209 8 99 100 102
210 8 105 106 107
211 8 105 106 108
212 7 116 117 118
213 7 121 122 123
214 9 129 130 131
215 10 129 130 132
216 7 134 135 136
217 8 149 150 151
218 8 149 150 152
219 7 161 162 163
220 7 164 165 166
221 8 167 168 169
222 8 167 168 170
223 7 178 179 180
224 8 185 186 187
225 8 185 186 188
226 7 193 194 195
227 7 196 197 198
228 7 199 200 201
229 7 206 207 208
230 8 218 219 220
231 8 218 219 221
232 7 224 225 226
233 7 227 228 229

Dihedrals

1 1 4 6 8 11
2 1 6 8 11 12
3 1 8 11 12 15
4 1 11 12 15 18
5 1 12 15 18 20
6 1 15 18 20 24
7 1 18 20 24 26
8 1 20 24 26 28
9 1 111 113 114 116
10 1 113 114 116 119
11 1 137 139 141 143
12 1 139 141 143 145
13 1 141 143 145 147
14 1 143 145 147 149
15 1 159 161 164 167
16 1 199 202 204 206
17 1 202 204 206 209
18 1 204 206 209 211
19 1 206 209 211 213
20 1 209 211 213 215
21 1 211 213 215 217
22 1 213 215 217 218
23 1 215 217 218 222
24 1 217 218 222 224
25 1 218 222 224 227
26 1 222 224 227 230
27 1 224 227 230 231
28 1 227 230 231 233

Impropers

1 1 20 22 23 21
2 1 38 40 41 39
3 1 56 58 59 57
4 1 72 74 75 73
5 1 79 81 82 80
6 1 99 101 102 100
7 1 105 107 108 106
8 1 129 131 132 130
9 2 130 131 133 132
10 1 149 151 152 150
11 1 167 169 170 168
12 1 185 187 188 186
13 1 218 220 221 219

