ITEM: TIMESTEP
0
ITEM: NUMBER OF ATOMS
2600
ITEM: BOX BOUNDS pp pp pp
-4.0500000000000000e+01 4.0500000000000000e+01
-4.0500000000000000e+01 4.0500000000000000e+01
-1.9000000000000000e+02 1.9000000000000000e+02
ITEM: ATOMS id type xu yu zu
2041 2 -40 -40 -50
2043 2 -40 -35 -50
2075 2 -35 -40 -50
2077 2 -35 -35 -50
2109 2 -30 -40 -50
2111 2 -30 -35 -50
2143 2 -25 -40 -50
2145 2 -25 -35 -50
2177 2 -20 -40 -50
2179 2 -20 -35 -50
2211 2 -15 -40 -50
2213 2 -15 -35 -50
2245 2 -10 -40 -50
2247 2 -10 -35 -50
2279 2 -5 -40 -50
2281 2 -5 -35 -50
2307 2 0 -40 -50
2309 2 0 -35 -50
2335 2 5 -40 -50
2337 2 5 -35 -50
2363 2 10 -40 -50
2365 2 10 -35 -50
2397 2 15 -40 -50
2399 2 15 -35 -50
2431 2 20 -40 -50
2433 2 20 -35 -50
2465 2 25 -40 -50
2467 2 25 -35 -50
2499 2 30 -40 -50
2501 2 30 -35 -50
2533 2 35 -40 -50
2535 2 35 -35 -50
2567 2 40 -40 -50
2569 2 40 -35 -50
2045 2 -40 -30 -50
2079 2 -35 -30 -50
2113 2 -30 -30 -50
2147 2 -25 -30 -50
2181 2 -20 -30 -50
2215 2 -15 -30 -50
2249 2 -10 -30 -50
2283 2 -5 -30 -50
2311 2 0 -30 -50
2339 2 5 -30 -50
2367 2 10 -30 -50
2401 2 15 -30 -50
2435 2 20 -30 -50
2469 2 25 -30 -50
2503 2 30 -30 -50
2537 2 35 -30 -50
2571 2 40 -30 -50
2047 2 -40 -25 -50
2081 2 -35 -25 -50
2115 2 -30 -25 -50
2149 2 -25 -25 -50
2183 2 -20 -25 -50
2217 2 -15 -25 -50
2251 2 -10 -25 -50
2285 2 -5 -25 -50
2313 2 0 -25 -50
2341 2 5 -25 -50
2369 2 10 -25 -50
2403 2 15 -25 -50
2437 2 20 -25 -50
2471 2 25 -25 -50
2505 2 30 -25 -50
2539 2 35 -25 -50
2573 2 40 -25 -50
2049 2 -40 -20 -50
2051 2 -40 -15 -50
2083 2 -35 -20 -50
2085 2 -35 -15 -50
2117 2 -30 -20 -50
2119 2 -30 -15 -50
2151 2 -25 -20 -50
2153 2 -25 -15 -50
2185 2 -20 -20 -50
2187 2 -20 -15 -50
2219 2 -15 -20 -50
2221 2 -15 -15 -50
2253 2 -10 -20 -50
2255 2 -10 -15 -50
2287 2 -5 -20 -50
2289 2 -5 -15 -50
2315 2 0 -20 -50
2317 2 0 -15 -50
2343 2 5 -20 -50
2345 2 5 -15 -50
2371 2 10 -20 -50
2373 2 10 -15 -50
2405 2 15 -20 -50
2407 2 15 -15 -50
2439 2 20 -20 -50
2441 2 20 -15 -50
2473 2 25 -20 -50
2475 2 25 -15 -50
2507 2 30 -20 -50
2509 2 30 -15 -50
2541 2 35 -20 -50
2543 2 35 -15 -50
2575 2 40 -20 -50
2577 2 40 -15 -50
2053 2 -40 -10 -50
2087 2 -35 -10 -50
2121 2 -30 -10 -50
2155 2 -25 -10 -50
2189 2 -20 -10 -50
2223 2 -15 -10 -50
2257 2 -10 -10 -50
2291 2 -5 -10 -50
2319 2 0 -10 -50
2347 2 5 -10 -50
2375 2 10 -10 -50
2409 2 15 -10 -50
2443 2 20 -10 -50
2477 2 25 -10 -50
2511 2 30 -10 -50
2545 2 35 -10 -50
2579 2 40 -10 -50
2055 2 -40 -5 -50
2089 2 -35 -5 -50
2123 2 -30 -5 -50
2157 2 -25 -5 -50
2191 2 -20 -5 -50
2225 2 -15 -5 -50
2259 2 -10 -5 -50
1072 1 -6.47229 -0.59956 -50
1073 1 -6.47229 -0.59956 -48
1074 1 -6.47229 -0.59956 -46
1123 1 -6.30373 -1.58525 -50
1124 1 -6.30373 -1.58525 -48
1125 1 -6.30373 -1.58525 -46
1174 1 -5.98597 -2.53342 -50
1175 1 -5.98597 -2.53342 -48
1176 1 -5.98597 -2.53342 -46
1225 1 -5.52652 -3.42163 -50
1226 1 -5.52652 -3.42163 -48
1227 1 -5.52652 -3.42163 -46
1276 1 -4.93628 -4.22885 -50
1277 1 -4.93628 -4.22885 -48
1278 1 -4.93628 -4.22885 -46
1327 1 -4.22919 -4.93598 -50
1328 1 -4.22919 -4.93598 -48
1329 1 -4.22919 -4.93598 -46
1378 1 -3.42201 -5.52629 -50
1379 1 -3.42201 -5.52629 -48
1380 1 -3.42201 -5.52629 -46
1429 1 -2.53384 -5.98579 -50
1430 1 -2.53384 -5.98579 -48
1431 1 -2.53384 -5.98579 -46
1480 1 -1.58569 -6.30362 -50
1481 1 -1.58569 -6.30362 -48
1482 1 -1.58569 -6.30362 -46
1531 1 -0.600008 -6.47225 -50
1532 1 -0.600008 -6.47225 -48
1533 1 -0.600008 -6.47225 -46
1582 1 0.399873 -6.48769 -50
1583 1 0.399873 -6.48769 -48
1584 1 0.399873 -6.48769 -46
1633 1 1.39029 -6.34957 -50
1634 1 1.39029 -6.34957 -48
1635 1 1.39029 -6.34957 -46
1684 1 2.3478 -6.06117 -50
1685 1 2.3478 -6.06117 -48
1686 1 2.3478 -6.06117 -46
1735 1 3.24974 -5.62932 -50
1736 1 3.24974 -5.62932 -48
1737 1 3.24974 -5.62932 -46
1786 1 4.07476 -5.06422 -50
1787 1 4.07476 -5.06422 -48
1788 1 4.07476 -5.06422 -46
1837 1 4.80334 -4.37926 -50
1838 1 4.80334 -4.37926 -48
1839 1 4.80334 -4.37926 -46
1888 1 5.41824 -3.59064 -50
1889 1 5.41824 -3.59064 -48
1890 1 5.41824 -3.59064 -46
1939 1 5.90488 -2.71705 -50
1940 1 5.90488 -2.71705 -48
1941 1 5.90488 -2.71705 -46
1990 1 6.25177 -1.77914 -50
1991 1 6.25177 -1.77914 -48
1992 1 6.25177 -1.77914 -46
2377 2 10 -5 -50
2411 2 15 -5 -50
2445 2 20 -5 -50
2479 2 25 -5 -50
2513 2 30 -5 -50
2547 2 35 -5 -50
2581 2 40 -5 -50
2057 2 -40 0 -50
2059 2 -40 5 -50
2091 2 -35 0 -50
2093 2 -35 5 -50
2125 2 -30 0 -50
2127 2 -30 5 -50
2159 2 -25 0 -50
2161 2 -25 5 -50
2193 2 -20 0 -50
2195 2 -20 5 -50
2227 2 -15 0 -50
2229 2 -15 5 -50
2261 2 -10 0 -50
2263 2 -10 5 -50
562 1 -0.798677 6.45075 -50
563 1 -0.798677 6.45075 -48
564 1 -0.798677 6.45075 -46
613 1 -1.77871 6.2519 -50
614 1 -1.77871 6.2519 -48
615 1 -1.77871 6.2519 -46
664 1 -2.71664 5.90507 -50
665 1 -2.71664 5.90507 -48
666 1 -2.71664 5.90507 -46
715 1 -3.59027 5.41848 -50
716 1 -3.59027 5.41848 -48
717 1 -3.59027 5.41848 -46
766 1 -4.37892 4.80365 -50
767 1 -4.37892 4.80365 -48
768 1 -4.37892 4.80365 -46
817 1 -5.06394 4.07511 -50
818 1 -5.06394 4.07511 -48
819 1 -5.06394 4.07511 -46
868 1 -5.62909 3.25013 -50
869 1 -5.62909 3.25013 -48
870 1 -5.62909 3.25013 -46
919 1 -6.06101 2.34822 -50
920 1 -6.06101 2.34822 -48
921 1 -6.06101 2.34822 -46
970 1 -6.34948 1.39073 -50
971 1 -6.34948 1.39073 -48
972 1 -6.34948 1.39073 -46
1021 1 -6.48766 0.400322 -50
1022 1 -6.48766 0.400322 -48
1023 1 -6.48766 0.400322 -46
1 1 6.5 0 -50
2 1 6.5 0 -48
3 1 6.5 0 -46
52 1 6.42308 0.997037 -50
53 1 6.42308 0.997037 -48
54 1 6.42308 0.997037 -46
103 1 6.19413 1.97048 -50
104 1 6.19413 1.97048 -48
105 1 6.19413 1.97048 -46
154 1 5.81857 2.89728 -50
155 1 5.81857 2.89728 -48
156 1 5.81857 2.89728 -46
205 1 5.3053 3.7555 -50
206 1 5.3053 3.7555 -48
207 1 5.3053 3.7555 -46
256 1 4.66646 4.52484 -50
257 1 4.66646 4.52484 -48
258 1 4.66646 4.52484 -46
307 1 3.91717 5.18708 -50
308 1 3.91717 5.18708 -48
309 1 3.91717 5.18708 -46
358 1 3.07516 5.72655 -50
359 1 3.07516 5.72655 -48
360 1 3.07516 5.72655 -46
409 1 2.16037 6.13048 -50
410 1 2.16037 6.13048 -48
411 1 2.16037 6.13048 -46
460 1 1.19445 6.38931 -50
461 1 1.19445 6.38931 -48
462 1 1.19445 6.38931 -46
511 1 0.200256 6.49691 -50
512 1 0.200256 6.49691 -48
513 1 0.200256 6.49691 -46
2379 2 10 0 -50
2381 2 10 5 -50
2413 2 15 0 -50
2415 2 15 5 -50
2447 2 20 0 -50
2449 2 20 5 -50
2481 2 25 0 -50
2483 2 25 5 -50
2515 2 30 0 -50
2517 2 30 5 -50
2549 2 35 0 -50
2551 2 35 5 -50
2583 2 40 0 -50
2585 2 40 5 -50
2061 2 -40 10 -50
2095 2 -35 10 -50
2129 2 -30 10 -50
2163 2 -25 10 -50
2197 2 -20 10 -50
2231 2 -15 10 -50
2265 2 -10 10 -50
2293 2 -5 10 -50
2321 2 0 10 -50
2349 2 5 10 -50
2383 2 10 10 -50
2417 2 15 10 -50
2451 2 20 10 -50
2485 2 25 10 -50
2519 2 30 10 -50
2553 2 35 10 -50
2587 2 40 10 -50
2063 2 -40 15 -50
2065 2 -40 20 -50
2097 2 -35 15 -50
2099 2 -35 20 -50
2131 2 -30 15 -50
2133 2 -30 20 -50
2165 2 -25 15 -50
2167 2 -25 20 -50
2199 2 -20 15 -50
2201 2 -20 20 -50
2233 2 -15 15 -50
2235 2 -15 20 -50
2267 2 -10 15 -50
2269 2 -10 20 -50
2295 2 -5 15 -50
2297 2 -5 20 -50
2323 2 0 15 -50
2325 2 0 20 -50
2351 2 5 15 -50
2353 2 5 20 -50
2385 2 10 15 -50
2387 2 10 20 -50
2419 2 15 15 -50
2421 2 15 20 -50
2453 2 20 15 -50
2455 2 20 20 -50
2487 2 25 15 -50
2489 2 25 20 -50
2521 2 30 15 -50
2523 2 30 20 -50
2555 2 35 15 -50
2557 2 35 20 -50
2589 2 40 15 -50
2591 2 40 20 -50
2067 2 -40 25 -50
2101 2 -35 25 -50
2135 2 -30 25 -50
2169 2 -25 25 -50
2203 2 -20 25 -50
2237 2 -15 25 -50
2271 2 -10 25 -50
2299 2 -5 25 -50
2327 2 0 25 -50
2355 2 5 25 -50
2389 2 10 25 -50
2423 2 15 25 -50
2457 2 20 25 -50
2491 2 25 25 -50
2525 2 30 25 -50
2559 2 35 25 -50
2593 2 40 25 -50
2069 2 -40 30 -50
2103 2 -35 30 -50
2137 2 -30 30 -50
2171 2 -25 30 -50
2205 2 -20 30 -50
2239 2 -15 30 -50
2273 2 -10 30 -50
2301 2 -5 30 -50
2329 2 0 30 -50
2357 2 5 30 -50
2391 2 10 30 -50
2425 2 15 30 -50
2459 2 20 30 -50
2493 2 25 30 -50
2527 2 30 30 -50
2561 2 35 30 -50
2595 2 40 30 -50
2071 2 -40 35 -50
2073 2 -40 40 -50
2105 2 -35 35 -50
2107 2 -35 40 -50
2139 2 -30 35 -50
2141 2 -30 40 -50
2173 2 -25 35 -50
2175 2 -25 40 -50
2207 2 -20 35 -50
2209 2 -20 40 -50
2241 2 -15 35 -50
2243 2 -15 40 -50
2275 2 -10 35 -50
2277 2 -10 40 -50
2303 2 -5 35 -50
2305 2 -5 40 -50
2331 2 0 35 -50
2333 2 0 40 -50
2359 2 5 35 -50
2361 2 5 40 -50
2393 2 10 35 -50
2395 2 10 40 -50
2427 2 15 35 -50
2429 2 15 40 -50
2461 2 20 35 -50
2463 2 20 40 -50
2495 2 25 35 -50
2497 2 25 40 -50
2529 2 30 35 -50
2531 2 30 40 -50
2563 2 35 35 -50
2565 2 35 40 -50
2597 2 40 35 -50
2599 2 40 40 -50
1075 1 -6.47229 -0.59956 -44
1076 1 -6.47229 -0.59956 -42
1077 1 -6.47229 -0.59956 -40
1126 1 -6.30373 -1.58525 -44
1127 1 -6.30373 -1.58525 -42
1128 1 -6.30373 -1.58525 -40
1177 1 -5.98597 -2.53342 -44
1178 1 -5.98597 -2.53342 -42
1179 1 -5.98597 -2.53342 -40
1228 1 -5.52652 -3.42163 -44
1229 1 -5.52652 -3.42163 -42
1230 1 -5.52652 -3.42163 -40
1279 1 -4.93628 -4.22885 -44
1280 1 -4.93628 -4.22885 -42
1281 1 -4.93628 -4.22885 -40
1330 1 -4.22919 -4.93598 -44
1331 1 -4.22919 -4.93598 -42
1332 1 -4.22919 -4.93598 -40
1381 1 -3.42201 -5.52629 -44
1382 1 -3.42201 -5.52629 -42
1383 1 -3.42201 -5.52629 -40
1432 1 -2.53384 -5.98579 -44
1433 1 -2.53384 -5.98579 -42
1434 1 -2.53384 -5.98579 -40
1483 1 -1.58569 -6.30362 -44
1484 1 -1.58569 -6.30362 -42
1485 1 -1.58569 -6.30362 -40
1534 1 -0.600008 -6.47225 -44
1535 1 -0.600008 -6.47225 -42
1536 1 -0.600008 -6.47225 -40
1585 1 0.399873 -6.48769 -44
1586 1 0.399873 -6.48769 -42
1587 1 0.399873 -6.48769 -40
1636 1 1.39029 -6.34957 -44
1637 1 1.39029 -6.34957 -42
1638 1 1.39029 -6.34957 -40
1687 1 2.3478 -6.06117 -44
1688 1 2.3478 -6.06117 -42
1689 1 2.3478 -6.06117 -40
1738 1 3.24974 -5.62932 -44
1739 1 3.24974 -5.62932 -42
1740 1 3.24974 -5.62932 -40
1789 1 4.07476 -5.06422 -44
1790 1 4.07476 -5.06422 -42
1791 1 4.07476 -5.06422 -40
1840 1 4.80334 -4.37926 -44
1841 1 4.80334 -4.37926 -42
1842 1 4.80334 -4.37926 -40
1891 1 5.41824 -3.59064 -44
1892 1 5.41824 -3.59064 -42
1893 1 5.41824 -3.59064 -40
1942 1 5.90488 -2.71705 -44
1943 1 5.90488 -2.71705 -42
1944 1 5.90488 -2.71705 -40
1993 1 6.25177 -1.77914 -44
1994 1 6.25177 -1.77914 -42
1995 1 6.25177 -1.77914 -40
565 1 -0.798677 6.45075 -44
566 1 -0.798677 6.45075 -42
567 1 -0.798677 6.45075 -40
616 1 -1.77871 6.2519 -44
617 1 -1.77871 6.2519 -42
618 1 -1.77871 6.2519 -40
667 1 -2.71664 5.90507 -44
668 1 -2.71664 5.90507 -42
669 1 -2.71664 5.90507 -40
718 1 -3.59027 5.41848 -44
719 1 -3.59027 5.41848 -42
720 1 -3.59027 5.41848 -40
769 1 -4.37892 4.80365 -44
770 1 -4.37892 4.80365 -42
771 1 -4.37892 4.80365 -40
820 1 -5.06394 4.07511 -44
821 1 -5.06394 4.07511 -42
822 1 -5.06394 4.07511 -40
871 1 -5.62909 3.25013 -44
872 1 -5.62909 3.25013 -42
873 1 -5.62909 3.25013 -40
922 1 -6.06101 2.34822 -44
923 1 -6.06101 2.34822 -42
924 1 -6.06101 2.34822 -40
973 1 -6.34948 1.39073 -44
974 1 -6.34948 1.39073 -42
975 1 -6.34948 1.39073 -40
1024 1 -6.48766 0.400322 -44
1025 1 -6.48766 0.400322 -42
1026 1 -6.48766 0.400322 -40
4 1 6.5 0 -44
5 1 6.5 0 -42
6 1 6.5 0 -40
55 1 6.42308 0.997037 -44
56 1 6.42308 0.997037 -42
57 1 6.42308 0.997037 -40
106 1 6.19413 1.97048 -44
107 1 6.19413 1.97048 -42
108 1 6.19413 1.97048 -40
157 1 5.81857 2.89728 -44
158 1 5.81857 2.89728 -42
159 1 5.81857 2.89728 -40
208 1 5.3053 3.7555 -44
209 1 5.3053 3.7555 -42
210 1 5.3053 3.7555 -40
259 1 4.66646 4.52484 -44
260 1 4.66646 4.52484 -42
261 1 4.66646 4.52484 -40
310 1 3.91717 5.18708 -44
311 1 3.91717 5.18708 -42
312 1 3.91717 5.18708 -40
361 1 3.07516 5.72655 -44
362 1 3.07516 5.72655 -42
363 1 3.07516 5.72655 -40
412 1 2.16037 6.13048 -44
413 1 2.16037 6.13048 -42
414 1 2.16037 6.13048 -40
463 1 1.19445 6.38931 -44
464 1 1.19445 6.38931 -42
465 1 1.19445 6.38931 -40
514 1 0.200256 6.49691 -44
515 1 0.200256 6.49691 -42
516 1 0.200256 6.49691 -40
1078 1 -6.47229 -0.59956 -38
1079 1 -6.47229 -0.59956 -36
1080 1 -6.47229 -0.59956 -34
1129 1 -6.30373 -1.58525 -38
1130 1 -6.30373 -1.58525 -36
1131 1 -6.30373 -1.58525 -34
1180 1 -5.98597 -2.53342 -38
1181 1 -5.98597 -2.53342 -36
1182 1 -5.98597 -2.53342 -34
1231 1 -5.52652 -3.42163 -38
1232 1 -5.52652 -3.42163 -36
1233 1 -5.52652 -3.42163 -34
1282 1 -4.93628 -4.22885 -38
1283 1 -4.93628 -4.22885 -36
1284 1 -4.93628 -4.22885 -34
1333 1 -4.22919 -4.93598 -38
1334 1 -4.22919 -4.93598 -36
1335 1 -4.22919 -4.93598 -34
1384 1 -3.42201 -5.52629 -38
1385 1 -3.42201 -5.52629 -36
1386 1 -3.42201 -5.52629 -34
1435 1 -2.53384 -5.98579 -38
1436 1 -2.53384 -5.98579 -36
1437 1 -2.53384 -5.98579 -34
1486 1 -1.58569 -6.30362 -38
1487 1 -1.58569 -6.30362 -36
1488 1 -1.58569 -6.30362 -34
1537 1 -0.600008 -6.47225 -38
1538 1 -0.600008 -6.47225 -36
1539 1 -0.600008 -6.47225 -34
1588 1 0.399873 -6.48769 -38
1589 1 0.399873 -6.48769 -36
1590 1 0.399873 -6.48769 -34
1639 1 1.39029 -6.34957 -38
1640 1 1.39029 -6.34957 -36
1641 1 1.39029 -6.34957 -34
1690 1 2.3478 -6.06117 -38
1691 1 2.3478 -6.06117 -36
1692 1 2.3478 -6.06117 -34
1741 1 3.24974 -5.62932 -38
1742 1 3.24974 -5.62932 -36
1743 1 3.24974 -5.62932 -34
1792 1 4.07476 -5.06422 -38
1793 1 4.07476 -5.06422 -36
1794 1 4.07476 -5.06422 -34
1843 1 4.80334 -4.37926 -38
1844 1 4.80334 -4.37926 -36
1845 1 4.80334 -4.37926 -34
1894 1 5.41824 -3.59064 -38
1895 1 5.41824 -3.59064 -36
1896 1 5.41824 -3.59064 -34
1945 1 5.90488 -2.71705 -38
1946 1 5.90488 -2.71705 -36
1947 1 5.90488 -2.71705 -34
1996 1 6.25177 -1.77914 -38
1997 1 6.25177 -1.77914 -36
1998 1 6.25177 -1.77914 -34
568 1 -0.798677 6.45075 -38
569 1 -0.798677 6.45075 -36
570 1 -0.798677 6.45075 -34
619 1 -1.77871 6.2519 -38
620 1 -1.77871 6.2519 -36
621 1 -1.77871 6.2519 -34
670 1 -2.71664 5.90507 -38
671 1 -2.71664 5.90507 -36
672 1 -2.71664 5.90507 -34
721 1 -3.59027 5.41848 -38
722 1 -3.59027 5.41848 -36
723 1 -3.59027 5.41848 -34
772 1 -4.37892 4.80365 -38
773 1 -4.37892 4.80365 -36
774 1 -4.37892 4.80365 -34
823 1 -5.06394 4.07511 -38
824 1 -5.06394 4.07511 -36
825 1 -5.06394 4.07511 -34
874 1 -5.62909 3.25013 -38
875 1 -5.62909 3.25013 -36
876 1 -5.62909 3.25013 -34
925 1 -6.06101 2.34822 -38
926 1 -6.06101 2.34822 -36
927 1 -6.06101 2.34822 -34
976 1 -6.34948 1.39073 -38
977 1 -6.34948 1.39073 -36
978 1 -6.34948 1.39073 -34
1027 1 -6.48766 0.400322 -38
1028 1 -6.48766 0.400322 -36
1029 1 -6.48766 0.400322 -34
7 1 6.5 0 -38
8 1 6.5 0 -36
9 1 6.5 0 -34
58 1 6.42308 0.997037 -38
59 1 6.42308 0.997037 -36
60 1 6.42308 0.997037 -34
109 1 6.19413 1.97048 -38
110 1 6.19413 1.97048 -36
111 1 6.19413 1.97048 -34
160 1 5.81857 2.89728 -38
161 1 5.81857 2.89728 -36
162 1 5.81857 2.89728 -34
211 1 5.3053 3.7555 -38
212 1 5.3053 3.7555 -36
213 1 5.3053 3.7555 -34
262 1 4.66646 4.52484 -38
263 1 4.66646 4.52484 -36
264 1 4.66646 4.52484 -34
313 1 3.91717 5.18708 -38
314 1 3.91717 5.18708 -36
315 1 3.91717 5.18708 -34
364 1 3.07516 5.72655 -38
365 1 3.07516 5.72655 -36
366 1 3.07516 5.72655 -34
415 1 2.16037 6.13048 -38
416 1 2.16037 6.13048 -36
417 1 2.16037 6.13048 -34
466 1 1.19445 6.38931 -38
467 1 1.19445 6.38931 -36
468 1 1.19445 6.38931 -34
517 1 0.200256 6.49691 -38
518 1 0.200256 6.49691 -36
519 1 0.200256 6.49691 -34
1081 1 -6.47229 -0.59956 -32
1082 1 -6.47229 -0.59956 -30
1083 1 -6.47229 -0.59956 -28
1132 1 -6.30373 -1.58525 -32
1133 1 -6.30373 -1.58525 -30
1134 1 -6.30373 -1.58525 -28
1183 1 -5.98597 -2.53342 -32
1184 1 -5.98597 -2.53342 -30
1185 1 -5.98597 -2.53342 -28
1234 1 -5.52652 -3.42163 -32
1235 1 -5.52652 -3.42163 -30
1236 1 -5.52652 -3.42163 -28
1285 1 -4.93628 -4.22885 -32
1286 1 -4.93628 -4.22885 -30
1287 1 -4.93628 -4.22885 -28
1336 1 -4.22919 -4.93598 -32
1337 1 -4.22919 -4.93598 -30
1338 1 -4.22919 -4.93598 -28
1387 1 -3.42201 -5.52629 -32
1388 1 -3.42201 -5.52629 -30
1389 1 -3.42201 -5.52629 -28
1438 1 -2.53384 -5.98579 -32
1439 1 -2.53384 -5.98579 -30
1440 1 -2.53384 -5.98579 -28
1489 1 -1.58569 -6.30362 -32
1490 1 -1.58569 -6.30362 -30
1491 1 -1.58569 -6.30362 -28
1540 1 -0.600008 -6.47225 -32
1541 1 -0.600008 -6.47225 -30
1542 1 -0.600008 -6.47225 -28
1591 1 0.399873 -6.48769 -32
1592 1 0.399873 -6.48769 -30
1593 1 0.399873 -6.48769 -28
1642 1 1.39029 -6.34957 -32
1643 1 1.39029 -6.34957 -30
1644 1 1.39029 -6.34957 -28
1693 1 2.3478 -6.06117 -32
1694 1 2.3478 -6.06117 -30
1695 1 2.3478 -6.06117 -28
1744 1 3.24974 -5.62932 -32
1745 1 3.24974 -5.62932 -30
1746 1 3.24974 -5.62932 -28
1795 1 4.07476 -5.06422 -32
1796 1 4.07476 -5.06422 -30
1797 1 4.07476 -5.06422 -28
1846 1 4.80334 -4.37926 -32
1847 1 4.80334 -4.37926 -30
1848 1 4.80334 -4.37926 -28
1897 1 5.41824 -3.59064 -32
1898 1 5.41824 -3.59064 -30
1899 1 5.41824 -3.59064 -28
1948 1 5.90488 -2.71705 -32
1949 1 5.90488 -2.71705 -30
1950 1 5.90488 -2.71705 -28
1999 1 6.25177 -1.77914 -32
2000 1 6.25177 -1.77914 -30
2001 1 6.25177 -1.77914 -28
571 1 -0.798677 6.45075 -32
572 1 -0.798677 6.45075 -30
573 1 -0.798677 6.45075 -28
622 1 -1.77871 6.2519 -32
623 1 -1.77871 6.2519 -30
624 1 -1.77871 6.2519 -28
673 1 -2.71664 5.90507 -32
674 1 -2.71664 5.90507 -30
675 1 -2.71664 5.90507 -28
724 1 -3.59027 5.41848 -32
725 1 -3.59027 5.41848 -30
726 1 -3.59027 5.41848 -28
775 1 -4.37892 4.80365 -32
776 1 -4.37892 4.80365 -30
777 1 -4.37892 4.80365 -28
826 1 -5.06394 4.07511 -32
827 1 -5.06394 4.07511 -30
828 1 -5.06394 4.07511 -28
877 1 -5.62909 3.25013 -32
878 1 -5.62909 3.25013 -30
879 1 -5.62909 3.25013 -28
928 1 -6.06101 2.34822 -32
929 1 -6.06101 2.34822 -30
930 1 -6.06101 2.34822 -28
979 1 -6.34948 1.39073 -32
980 1 -6.34948 1.39073 -30
981 1 -6.34948 1.39073 -28
1030 1 -6.48766 0.400322 -32
1031 1 -6.48766 0.400322 -30
1032 1 -6.48766 0.400322 -28
10 1 6.5 0 -32
11 1 6.5 0 -30
12 1 6.5 0 -28
61 1 6.42308 0.997037 -32
62 1 6.42308 0.997037 -30
63 1 6.42308 0.997037 -28
112 1 6.19413 1.97048 -32
113 1 6.19413 1.97048 -30
114 1 6.19413 1.97048 -28
163 1 5.81857 2.89728 -32
164 1 5.81857 2.89728 -30
165 1 5.81857 2.89728 -28
214 1 5.3053 3.7555 -32
215 1 5.3053 3.7555 -30
216 1 5.3053 3.7555 -28
265 1 4.66646 4.52484 -32
266 1 4.66646 4.52484 -30
267 1 4.66646 4.52484 -28
316 1 3.91717 5.18708 -32
317 1 3.91717 5.18708 -30
318 1 3.91717 5.18708 -28
367 1 3.07516 5.72655 -32
368 1 3.07516 5.72655 -30
369 1 3.07516 5.72655 -28
418 1 2.16037 6.13048 -32
419 1 2.16037 6.13048 -30
420 1 2.16037 6.13048 -28
469 1 1.19445 6.38931 -32
470 1 1.19445 6.38931 -30
471 1 1.19445 6.38931 -28
520 1 0.200256 6.49691 -32
521 1 0.200256 6.49691 -30
522 1 0.200256 6.49691 -28
1084 1 -6.47229 -0.59956 -26
1085 1 -6.47229 -0.59956 -24
1086 1 -6.47229 -0.59956 -22
1087 1 -6.47229 -0.59956 -20
1135 1 -6.30373 -1.58525 -26
1136 1 -6.30373 -1.58525 -24
1137 1 -6.30373 -1.58525 -22
1138 1 -6.30373 -1.58525 -20
1186 1 -5.98597 -2.53342 -26
1187 1 -5.98597 -2.53342 -24
1188 1 -5.98597 -2.53342 -22
1189 1 -5.98597 -2.53342 -20
1237 1 -5.52652 -3.42163 -26
1238 1 -5.52652 -3.42163 -24
1239 1 -5.52652 -3.42163 -22
1240 1 -5.52652 -3.42163 -20
1288 1 -4.93628 -4.22885 -26
1289 1 -4.93628 -4.22885 -24
1290 1 -4.93628 -4.22885 -22
1291 1 -4.93628 -4.22885 -20
1339 1 -4.22919 -4.93598 -26
1340 1 -4.22919 -4.93598 -24
1341 1 -4.22919 -4.93598 -22
1342 1 -4.22919 -4.93598 -20
1390 1 -3.42201 -5.52629 -26
1391 1 -3.42201 -5.52629 -24
1392 1 -3.42201 -5.52629 -22
1393 1 -3.42201 -5.52629 -20
1441 1 -2.53384 -5.98579 -26
1442 1 -2.53384 -5.98579 -24
1443 1 -2.53384 -5.98579 -22
1444 1 -2.53384 -5.98579 -20
1492 1 -1.58569 -6.30362 -26
1493 1 -1.58569 -6.30362 -24
1494 1 -1.58569 -6.30362 -22
1495 1 -1.58569 -6.30362 -20
1543 1 -0.600008 -6.47225 -26
1544 1 -0.600008 -6.47225 -24
1545 1 -0.600008 -6.47225 -22
1546 1 -0.600008 -6.47225 -20
1594 1 0.399873 -6.48769 -26
1595 1 0.399873 -6.48769 -24
1596 1 0.399873 -6.48769 -22
1597 1 0.399873 -6.48769 -20
1645 1 1.39029 -6.34957 -26
1646 1 1.39029 -6.34957 -24
1647 1 1.39029 -6.34957 -22
1648 1 1.39029 -6.34957 -20
1696 1 2.3478 -6.06117 -26
1697 1 2.3478 -6.06117 -24
1698 1 2.3478 -6.06117 -22
1699 1 2.3478 -6.06117 -20
1747 1 3.24974 -5.62932 -26
1748 1 3.24974 -5.62932 -24
1749 1 3.24974 -5.62932 -22
1750 1 3.24974 -5.62932 -20
1798 1 4.07476 -5.06422 -26
1799 1 4.07476 -5.06422 -24
1800 1 4.07476 -5.06422 -22
1801 1 4.07476 -5.06422 -20
1849 1 4.80334 -4.37926 -26
1850 1 4.80334 -4.37926 -24
1851 1 4.80334 -4.37926 -22
1852 1 4.80334 -4.37926 -20
1900 1 5.41824 -3.59064 -26
1901 1 5.41824 -3.59064 -24
1902 1 5.41824 -3.59064 -22
1903 1 5.41824 -3.59064 -20
1951 1 5.90488 -2.71705 -26
1952 1 5.90488 -2.71705 -24
1953 1 5.90488 -2.71705 -22
1954 1 5.90488 -2.71705 -20
2002 1 6.25177 -1.77914 -26
2003 1 6.25177 -1.77914 -24
2004 1 6.25177 -1.77914 -22
2005 1 6.25177 -1.77914 -20
574 1 -0.798677 6.45075 -26
575 1 -0.798677 6.45075 -24
576 1 -0.798677 6.45075 -22
577 1 -0.798677 6.45075 -20
625 1 -1.77871 6.2519 -26
626 1 -1.77871 6.2519 -24
627 1 -1.77871 6.2519 -22
628 1 -1.77871 6.2519 -20
676 1 -2.71664 5.90507 -26
677 1 -2.71664 5.90507 -24
678 1 -2.71664 5.90507 -22
679 1 -2.71664 5.90507 -20
727 1 -3.59027 5.41848 -26
728 1 -3.59027 5.41848 -24
729 1 -3.59027 5.41848 -22
730 1 -3.59027 5.41848 -20
778 1 -4.37892 4.80365 -26
779 1 -4.37892 4.80365 -24
780 1 -4.37892 4.80365 -22
781 1 -4.37892 4.80365 -20
829 1 -5.06394 4.07511 -26
830 1 -5.06394 4.07511 -24
831 1 -5.06394 4.07511 -22
832 1 -5.06394 4.07511 -20
880 1 -5.62909 3.25013 -26
881 1 -5.62909 3.25013 -24
882 1 -5.62909 3.25013 -22
883 1 -5.62909 3.25013 -20
931 1 -6.06101 2.34822 -26
932 1 -6.06101 2.34822 -24
933 1 -6.06101 2.34822 -22
934 1 -6.06101 2.34822 -20
982 1 -6.34948 1.39073 -26
983 1 -6.34948 1.39073 -24
984 1 -6.34948 1.39073 -22
985 1 -6.34948 1.39073 -20
1033 1 -6.48766 0.400322 -26
1034 1 -6.48766 0.400322 -24
1035 1 -6.48766 0.400322 -22
1036 1 -6.48766 0.400322 -20
13 1 6.5 0 -26
14 1 6.5 0 -24
15 1 6.5 0 -22
16 1 6.5 0 -20
64 1 6.42308 0.997037 -26
65 1 6.42308 0.997037 -24
66 1 6.42308 0.997037 -22
67 1 6.42308 0.997037 -20
115 1 6.19413 1.97048 -26
116 1 6.19413 1.97048 -24
117 1 6.19413 1.97048 -22
118 1 6.19413 1.97048 -20
166 1 5.81857 2.89728 -26
167 1 5.81857 2.89728 -24
168 1 5.81857 2.89728 -22
169 1 5.81857 2.89728 -20
217 1 5.3053 3.7555 -26
218 1 5.3053 3.7555 -24
219 1 5.3053 3.7555 -22
220 1 5.3053 3.7555 -20
268 1 4.66646 4.52484 -26
269 1 4.66646 4.52484 -24
270 1 4.66646 4.52484 -22
271 1 4.66646 4.52484 -20
319 1 3.91717 5.18708 -26
320 1 3.91717 5.18708 -24
321 1 3.91717 5.18708 -22
322 1 3.91717 5.18708 -20
370 1 3.07516 5.72655 -26
371 1 3.07516 5.72655 -24
372 1 3.07516 5.72655 -22
373 1 3.07516 5.72655 -20
421 1 2.16037 6.13048 -26
422 1 2.16037 6.13048 -24
423 1 2.16037 6.13048 -22
424 1 2.16037 6.13048 -20
472 1 1.19445 6.38931 -26
473 1 1.19445 6.38931 -24
474 1 1.19445 6.38931 -22
475 1 1.19445 6.38931 -20
523 1 0.200256 6.49691 -26
524 1 0.200256 6.49691 -24
525 1 0.200256 6.49691 -22
526 1 0.200256 6.49691 -20
1088 1 -6.47229 -0.59956 -18
1089 1 -6.47229 -0.59956 -16
1090 1 -6.47229 -0.59956 -14
1139 1 -6.30373 -1.58525 -18
1140 1 -6.30373 -1.58525 -16
1141 1 -6.30373 -1.58525 -14
1190 1 -5.98597 -2.53342 -18
1191 1 -5.98597 -2.53342 -16
1192 1 -5.98597 -2.53342 -14
1241 1 -5.52652 -3.42163 -18
1242 1 -5.52652 -3.42163 -16
1243 1 -5.52652 -3.42163 -14
1292 1 -4.93628 -4.22885 -18
1293 1 -4.93628 -4.22885 -16
1294 1 -4.93628 -4.22885 -14
1343 1 -4.22919 -4.93598 -18
1344 1 -4.22919 -4.93598 -16
1345 1 -4.22919 -4.93598 -14
1394 1 -3.42201 -5.52629 -18
1395 1 -3.42201 -5.52629 -16
1396 1 -3.42201 -5.52629 -14
1445 1 -2.53384 -5.98579 -18
1446 1 -2.53384 -5.98579 -16
1447 1 -2.53384 -5.98579 -14
1496 1 -1.58569 -6.30362 -18
1497 1 -1.58569 -6.30362 -16
1498 1 -1.58569 -6.30362 -14
1547 1 -0.600008 -6.47225 -18
1548 1 -0.600008 -6.47225 -16
1549 1 -0.600008 -6.47225 -14
1598 1 0.399873 -6.48769 -18
1599 1 0.399873 -6.48769 -16
1600 1 0.399873 -6.48769 -14
1649 1 1.39029 -6.34957 -18
1650 1 1.39029 -6.34957 -16
1651 1 1.39029 -6.34957 -14
1700 1 2.3478 -6.06117 -18
1701 1 2.3478 -6.06117 -16
1702 1 2.3478 -6.06117 -14
1751 1 3.24974 -5.62932 -18
1752 1 3.24974 -5.62932 -16
1753 1 3.24974 -5.62932 -14
1802 1 4.07476 -5.06422 -18
1803 1 4.07476 -5.06422 -16
1804 1 4.07476 -5.06422 -14
1853 1 4.80334 -4.37926 -18
1854 1 4.80334 -4.37926 -16
1855 1 4.80334 -4.37926 -14
1904 1 5.41824 -3.59064 -18
1905 1 5.41824 -3.59064 -16
1906 1 5.41824 -3.59064 -14
1955 1 5.90488 -2.71705 -18
1956 1 5.90488 -2.71705 -16
1957 1 5.90488 -2.71705 -14
2006 1 6.25177 -1.77914 -18
2007 1 6.25177 -1.77914 -16
2008 1 6.25177 -1.77914 -14
578 1 -0.798677 6.45075 -18
579 1 -0.798677 6.45075 -16
580 1 -0.798677 6.45075 -14
629 1 -1.77871 6.2519 -18
630 1 -1.77871 6.2519 -16
631 1 -1.77871 6.2519 -14
680 1 -2.71664 5.90507 -18
681 1 -2.71664 5.90507 -16
682 1 -2.71664 5.90507 -14
731 1 -3.59027 5.41848 -18
732 1 -3.59027 5.41848 -16
733 1 -3.59027 5.41848 -14
782 1 -4.37892 4.80365 -18
783 1 -4.37892 4.80365 -16
784 1 -4.37892 4.80365 -14
833 1 -5.06394 4.07511 -18
834 1 -5.06394 4.07511 -16
835 1 -5.06394 4.07511 -14
884 1 -5.62909 3.25013 -18
885 1 -5.62909 3.25013 -16
886 1 -5.62909 3.25013 -14
935 1 -6.06101 2.34822 -18
936 1 -6.06101 2.34822 -16
937 1 -6.06101 2.34822 -14
986 1 -6.34948 1.39073 -18
987 1 -6.34948 1.39073 -16
988 1 -6.34948 1.39073 -14
1037 1 -6.48766 0.400322 -18
1038 1 -6.48766 0.400322 -16
1039 1 -6.48766 0.400322 -14
17 1 6.5 0 -18
18 1 6.5 0 -16
19 1 6.5 0 -14
68 1 6.42308 0.997037 -18
69 1 6.42308 0.997037 -16
70 1 6.42308 0.997037 -14
119 1 6.19413 1.97048 -18
120 1 6.19413 1.97048 -16
121 1 6.19413 1.97048 -14
170 1 5.81857 2.89728 -18
171 1 5.81857 2.89728 -16
172 1 5.81857 2.89728 -14
221 1 5.3053 3.7555 -18
222 1 5.3053 3.7555 -16
223 1 5.3053 3.7555 -14
272 1 4.66646 4.52484 -18
273 1 4.66646 4.52484 -16
274 1 4.66646 4.52484 -14
323 1 3.91717 5.18708 -18
324 1 3.91717 5.18708 -16
325 1 3.91717 5.18708 -14
374 1 3.07516 5.72655 -18
375 1 3.07516 5.72655 -16
376 1 3.07516 5.72655 -14
425 1 2.16037 6.13048 -18
426 1 2.16037 6.13048 -16
427 1 2.16037 6.13048 -14
476 1 1.19445 6.38931 -18
477 1 1.19445 6.38931 -16
478 1 1.19445 6.38931 -14
527 1 0.200256 6.49691 -18
528 1 0.200256 6.49691 -16
529 1 0.200256 6.49691 -14
1091 1 -6.47229 -0.59956 -12
1092 1 -6.47229 -0.59956 -10
1093 1 -6.47229 -0.59956 -8
1142 1 -6.30373 -1.58525 -12
1143 1 -6.30373 -1.58525 -10
1144 1 -6.30373 -1.58525 -8
1193 1 -5.98597 -2.53342 -12
1194 1 -5.98597 -2.53342 -10
1195 1 -5.98597 -2.53342 -8
1244 1 -5.52652 -3.42163 -12
1245 1 -5.52652 -3.42163 -10
1246 1 -5.52652 -3.42163 -8
1295 1 -4.93628 -4.22885 -12
1296 1 -4.93628 -4.22885 -10
1297 1 -4.93628 -4.22885 -8
1346 1 -4.22919 -4.93598 -12
1347 1 -4.22919 -4.93598 -10
1348 1 -4.22919 -4.93598 -8
1397 1 -3.42201 -5.52629 -12
1398 1 -3.42201 -5.52629 -10
1399 1 -3.42201 -5.52629 -8
1448 1 -2.53384 -5.98579 -12
1449 1 -2.53384 -5.98579 -10
1450 1 -2.53384 -5.98579 -8
1499 1 -1.58569 -6.30362 -12
1500 1 -1.58569 -6.30362 -10
1501 1 -1.58569 -6.30362 -8
1550 1 -0.600008 -6.47225 -12
1551 1 -0.600008 -6.47225 -10
1552 1 -0.600008 -6.47225 -8
1601 1 0.399873 -6.48769 -12
1602 1 0.399873 -6.48769 -10
1603 1 0.399873 -6.48769 -8
1652 1 1.39029 -6.34957 -12
1653 1 1.39029 -6.34957 -10
1654 1 1.39029 -6.34957 -8
1703 1 2.3478 -6.06117 -12
1704 1 2.3478 -6.06117 -10
1705 1 2.3478 -6.06117 -8
1754 1 3.24974 -5.62932 -12
1755 1 3.24974 -5.62932 -10
1756 1 3.24974 -5.62932 -8
1805 1 4.07476 -5.06422 -12
1806 1 4.07476 -5.06422 -10
1807 1 4.07476 -5.06422 -8
1856 1 4.80334 -4.37926 -12
1857 1 4.80334 -4.37926 -10
1858 1 4.80334 -4.37926 -8
1907 1 5.41824 -3.59064 -12
1908 1 5.41824 -3.59064 -10
1909 1 5.41824 -3.59064 -8
1958 1 5.90488 -2.71705 -12
1959 1 5.90488 -2.71705 -10
1960 1 5.90488 -2.71705 -8
2009 1 6.25177 -1.77914 -12
2010 1 6.25177 -1.77914 -10
2011 1 6.25177 -1.77914 -8
581 1 -0.798677 6.45075 -12
582 1 -0.798677 6.45075 -10
583 1 -0.798677 6.45075 -8
632 1 -1.77871 6.2519 -12
633 1 -1.77871 6.2519 -10
634 1 -1.77871 6.2519 -8
683 1 -2.71664 5.90507 -12
684 1 -2.71664 5.90507 -10
685 1 -2.71664 5.90507 -8
734 1 -3.59027 5.41848 -12
735 1 -3.59027 5.41848 -10
736 1 -3.59027 5.41848 -8
785 1 -4.37892 4.80365 -12
786 1 -4.37892 4.80365 -10
787 1 -4.37892 4.80365 -8
836 1 -5.06394 4.07511 -12
837 1 -5.06394 4.07511 -10
838 1 -5.06394 4.07511 -8
887 1 -5.62909 3.25013 -12
888 1 -5.62909 3.25013 -10
889 1 -5.62909 3.25013 -8
938 1 -6.06101 2.34822 -12
939 1 -6.06101 2.34822 -10
940 1 -6.06101 2.34822 -8
989 1 -6.34948 1.39073 -12
990 1 -6.34948 1.39073 -10
991 1 -6.34948 1.39073 -8
1040 1 -6.48766 0.400322 -12
1041 1 -6.48766 0.400322 -10
1042 1 -6.48766 0.400322 -8
20 1 6.5 0 -12
21 1 6.5 0 -10
22 1 6.5 0 -8
71 1 6.42308 0.997037 -12
72 1 6.42308 0.997037 -10
73 1 6.42308 0.997037 -8
122 1 6.19413 1.97048 -12
123 1 6.19413 1.97048 -10
124 1 6.19413 1.97048 -8
173 1 5.81857 2.89728 -12
174 1 5.81857 2.89728 -10
175 1 5.81857 2.89728 -8
224 1 5.3053 3.7555 -12
225 1 5.3053 3.7555 -10
226 1 5.3053 3.7555 -8
275 1 4.66646 4.52484 -12
276 1 4.66646 4.52484 -10
277 1 4.66646 4.52484 -8
326 1 3.91717 5.18708 -12
327 1 3.91717 5.18708 -10
328 1 3.91717 5.18708 -8
377 1 3.07516 5.72655 -12
378 1 3.07516 5.72655 -10
379 1 3.07516 5.72655 -8
428 1 2.16037 6.13048 -12
429 1 2.16037 6.13048 -10
430 1 2.16037 6.13048 -8
479 1 1.19445 6.38931 -12
480 1 1.19445 6.38931 -10
481 1 1.19445 6.38931 -8
530 1 0.200256 6.49691 -12
531 1 0.200256 6.49691 -10
532 1 0.200256 6.49691 -8
1094 1 -6.47229 -0.59956 -6
1095 1 -6.47229 -0.59956 -4
1096 1 -6.47229 -0.59956 -2
1145 1 -6.30373 -1.58525 -6
1146 1 -6.30373 -1.58525 -4
1147 1 -6.30373 -1.58525 -2
1196 1 -5.98597 -2.53342 -6
1197 1 -5.98597 -2.53342 -4
1198 1 -5.98597 -2.53342 -2
1247 1 -5.52652 -3.42163 -6
1248 1 -5.52652 -3.42163 -4
1249 1 -5.52652 -3.42163 -2
1298 1 -4.93628 -4.22885 -6
1299 1 -4.93628 -4.22885 -4
1300 1 -4.93628 -4.22885 -2
1349 1 -4.22919 -4.93598 -6
1350 1 -4.22919 -4.93598 -4
1351 1 -4.22919 -4.93598 -2
1400 1 -3.42201 -5.52629 -6
1401 1 -3.42201 -5.52629 -4
1402 1 -3.42201 -5.52629 -2
1451 1 -2.53384 -5.98579 -6
1452 1 -2.53384 -5.98579 -4
1453 1 -2.53384 -5.98579 -2
1502 1 -1.58569 -6.30362 -6
1503 1 -1.58569 -6.30362 -4
1504 1 -1.58569 -6.30362 -2
1553 1 -0.600008 -6.47225 -6
1554 1 -0.600008 -6.47225 -4
1555 1 -0.600008 -6.47225 -2
1604 1 0.399873 -6.48769 -6
1605 1 0.399873 -6.48769 -4