comment

236 atoms
248 bonds
233 angles
28 dihedrals
13 impropers

17 atom types
17 bond types
10 angle types
1 dihedral types
2 improper types

-40.5 40.5 xlo xhi
-40.5 40.5 ylo yhi
-190.0 190.0 zlo zhi

Masses

1 72.0
2 72.0
3 72.0
4 72.0
5 72.0
6 72.0
7 72.0
8 72.0
9 72.0
10 45.0
11 72.0
12 72.0
13 72.0
14 45.0
15 45.0
16 72.0
17 45.0

PairIJ Coeffs

1 1 1.19503 4.699999999999999
1 2 1.3384336 4.699999999999999
1 3 1.3384336 4.699999999999999
1 4 0.956024 4.699999999999999
1 5 0.478012 4.699999999999999
1 6 0.5497137999999999 4.699999999999999
1 7 0.836521 4.699999999999999
1 8 0.478012 4.699999999999999
1 9 1.19503 4.699999999999999
1 10 0.7409186 4.699999999999999
1 11 1.3384336 4.699999999999999
1 12 1.19503 4.699999999999999
1 13 0.7409186 4.699999999999999
1 14 0.6453162 4.699999999999999
1 15 1.19503 4.699999999999999
1 16 1.19503 4.699999999999999
1 17 0.956024 4.699999999999999
2 2 1.3384336 4.699999999999999
2 3 1.3384336 4.699999999999999
2 4 1.19503 4.699999999999999
2 5 0.5497137999999999 4.699999999999999
2 6 0.6453162 4.699999999999999
2 7 0.836521 4.699999999999999
2 8 0.478012 4.699999999999999
2 9 1.19503 4.699999999999999
2 10 0.7409186 4.699999999999999
2 11 1.3384336 4.699999999999999
2 12 1.19503 4.699999999999999
2 13 0.7409186 4.699999999999999
2 14 0.6453162 4.699999999999999
2 15 1.3384336 4.699999999999999
2 16 1.3384336 4.699999999999999
2 17 1.19503 4.699999999999999
3 3 1.19503 4.699999999999999
3 4 1.19503 4.699999999999999
3 5 0.478012 4.699999999999999
3 6 0.5497137999999999 4.699999999999999
3 7 0.836521 4.699999999999999
3 8 0.478012 4.699999999999999
3 9 0.956024 4.699999999999999
3 10 0.7409186 4.699999999999999
3 11 1.3384336 4.699999999999999
3 12 1.19503 4.699999999999999
3 13 0.7409186 4.699999999999999
3 14 0.6453162 4.699999999999999
3 15 1.19503 4.699999999999999
3 16 1.19503 4.699999999999999
3 17 1.19503 4.699999999999999
4 4 0.956024 4.699999999999999
4 5 0.6453162 4.699999999999999
4 6 0.6453162 4.699999999999999
4 7 0.836521 4.699999999999999
4 8 0.6453162 4.699999999999999
4 9 1.075527 4.699999999999999
4 10 0.836521 4.699999999999999
4 11 0.956024 4.699999999999999
4 12 1.075527 4.699999999999999
4 13 0.836521 4.699999999999999
4 14 0.7409186 4.699999999999999
4 15 1.075527 4.699999999999999
4 16 1.075527 4.699999999999999
4 17 0.956024 4.699999999999999
5 5 0.836521 4.699999999999999
5 6 0.836521 4.699999999999999
5 7 0.7409186 4.699999999999999
5 8 0.836521 4.699999999999999
5 9 0.6453162 4.699999999999999
5 10 0.7409186 4.699999999999999
5 11 0.5497137999999999 4.699999999999999
5 12 0.6453162 4.699999999999999
5 13 0.7409186 4.699999999999999
5 14 0.7409186 4.699999999999999
5 15 0.7409186 4.699999999999999
5 16 0.7409186 4.699999999999999
5 17 0.6453162 4.699999999999999
6 6 0.836521 4.699999999999999
6 7 0.836521 4.699999999999999
6 8 0.836521 4.699999999999999
6 9 0.6453162 4.699999999999999
6 10 0.836521 4.699999999999999
6 11 0.6453162 4.699999999999999
6 12 0.6453162 4.699999999999999
6 13 0.836521 4.699999999999999
6 14 0.836521 4.699999999999999
6 15 0.836521 4.699999999999999
6 16 0.836521 4.699999999999999
6 17 0.6453162 4.699999999999999
7 7 0.836521 4.699999999999999
7 8 0.6453162 4.699999999999999
7 9 0.836521 4.699999999999999
7 10 0.836521 4.699999999999999
7 11 0.836521 4.699999999999999
7 12 0.836521 4.699999999999999
7 13 0.836521 4.699999999999999
7 14 0.836521 4.699999999999999
7 15 0.956024 4.699999999999999
7 16 0.956024 4.699999999999999
7 17 0.836521 4.699999999999999
8 8 0.836521 4.699999999999999
8 9 0.6453162 4.699999999999999
8 10 0.7409186 4.699999999999999
8 11 0.478012 4.699999999999999
8 12 0.6453162 4.699999999999999
8 13 0.7409186 4.699999999999999
8 14 0.7409186 4.699999999999999
8 15 0.6453162 4.699999999999999
8 16 0.6453162 4.699999999999999
8 17 0.6453162 4.699999999999999
9 9 0.956024 4.699999999999999
9 10 0.836521 4.699999999999999
9 11 0.956024 4.699999999999999
9 12 1.075527 4.699999999999999
9 13 0.836521 4.699999999999999
9 14 0.7409186 4.699999999999999
9 15 1.075527 4.699999999999999
9 16 1.075527 4.699999999999999
9 17 1.075527 4.699999999999999
10 10 0.62739075 4.3
10 11 0.7409186 4.699999999999999
10 12 0.836521 4.699999999999999
10 13 0.836521 4.699999999999999
10 14 0.62739075 4.3
10 15 0.62739075 4.3
10 16 0.836521 4.699999999999999
10 17 0.62739075 4.3
11 11 1.19503 4.699999999999999
11 12 0.956024 4.699999999999999
11 13 0.7409186 4.699999999999999
11 14 0.6453162 4.699999999999999
11 15 1.075527 4.699999999999999
11 16 1.075527 4.699999999999999
11 17 0.956024 4.699999999999999
12 12 1.075527 4.699999999999999
12 13 0.836521 4.699999999999999
12 14 0.7409186 4.699999999999999
12 15 1.075527 4.699999999999999
12 16 1.075527 4.699999999999999
12 17 1.075527 4.699999999999999
13 13 0.836521 4.699999999999999
13 14 0.836521 4.699999999999999
13 15 0.836521 4.699999999999999
13 16 0.836521 4.699999999999999
13 17 0.836521 4.699999999999999
14 14 0.62739075 4.3
14 15 0.62739075 4.3
14 16 0.836521 4.699999999999999
14 17 0.5556889500000001 4.3
15 15 0.80664525 4.3
15 16 1.075527 4.699999999999999
15 17 0.80664525 4.3
16 16 1.075527 4.699999999999999
16 17 1.075527 4.699999999999999
17 17 0.7170179999999999 4.3

Bond Coeffs

1 1.4937875 3.5
2 8.962725 3.2
3 5.97515 4.0
4 5.97515 3.3000000000000003
5 5.97515 2.8000000000000003
6 8.962725 3.1
7 8.962725 3.0
8 5.97515 3.2
9 8.962725 3.3000000000000003
10 5.97515 3.4000000000000004
11 5.97515 3.0
12 2.987575 4.0
13 11.9503 3.3000000000000003
14 11.9503 3.1
15 11.9503 2.6500000000000004
16 11.9503 2.7
17 11.9503 2.6

Angle Coeffs

1 2.39006 127
2 83.6521 96
3 2.39006 100
4 2.39006 130
5 11.9503 98
6 2.987575 100
7 2.987575 180
8 5.97515 150
9 5.97515 210
10 5.97515 90

Dihedral Coeffs

1 95.6024 1 -120 0

Improper Coeffs

1 5.97515 0
2 23.9006 0

Atoms

1 1 1 1.0000 1.255 -0.027 -48.818
2 1 2 0.0000 -0.403 0.404 -55.075
3 1 3 -1.0000 -3.189 -0.989 -55.123
4 1 4 0.0000 1.066 2.32 -57.404
5 1 5 0.0000 3.329 0.92 -57.255
6 1 4 0.0000 1.348 5.389 -56.681
7 1 3 -1.0000 -2.125 6.99 -57.431
8 1 4 0.0000 4.226 6.071 -58.006
9 1 6 0.0000 7.173 4.16 -57.611
10 1 1 1.0000 9.13 2.302 -57.485
11 1 4 0.0000 3.437 5.511 -61.207
12 1 7 0.0000 1.131 7.79 -61.635
13 1 6 0.0000 -1.899 7.405 -62.309
14 1 1 1.0000 -4.331 6.524 -61.382
15 1 7 0.0000 3.053 10.106 -60.293
16 1 6 0.0000 1.121 11.6 -57.708
17 1 1 1.0000 0.196 10.355 -55.363
18 1 7 0.0000 5.595 9.824 -62.087
19 1 8 0.0000 7.947 8.359 -61.051
20 1 9 0.0000 4.522 10.539 -65.218
21 1 10 0.0000 5.51 9.453 -67.947
22 1 10 0.0000 5.032 8.845 -70.407
23 1 10 0.0000 7.457 8.303 -69.425
24 1 9 0.0000 3.494 13.335 -64.938
25 1 5 0.0000 0.842 13.301 -64.157
26 1 9 0.0000 6.058 14.634 -63.748
27 1 11 0.0000 4.722 18.291 -65.096
28 1 9 0.0000 7.998 13.681 -66.096
29 1 6 0.0000 9.931 10.979 -65.443
30 1 1 1.0000 10.364 8.178 -65.475
31 1 12 0.0000 6.781 13.977 -69.036
32 1 13 0.0000 9.597 14.093 -70.666
33 1 7 0.0000 3.831 14.348 -70.031
34 1 12 0.0000 1.796 12.409 -69.254
35 1 11 0.0000 -0.573 15.701 -68.04
36 1 12 0.0000 -0.257 11.815 -71.62
37 1 13 0.0000 -1.537 14.66 -71.698
38 1 2 0.0000 -1.421 7.944 -71.568
39 1 14 0.0000 1.383 6.912 -72.68
40 1 15 0.0000 3.083 4.879 -72.965
41 1 15 0.0000 3.434 7.328 -74.457
42 1 2 0.0000 -4.76 7.363 -71.843
43 1 16 0.0000 -5.332 7.623 -74.551
44 1 2 0.0000 -5.144 6.533 -68.252
45 1 5 0.0000 -3.261 5.231 -68.063
46 1 2 0.0000 -7.77 5.971 -66.015
47 1 3 -1.0000 -6.105 9.745 -64.204
48 1 12 0.0000 -11.121 2.538 -65.491
49 1 6 0.0000 -12.711 2.442 -62.334
50 1 1 1.0000 -12.429 2.893 -59.566
51 1 12 0.0000 -12.912 5.594 -67.09
52 1 2 0.0000 -9.889 7.163 -67.471
53 1 2 0.0000 -10.374 10.295 -66.817
54 1 6 0.0000 -11.215 9.883 -63.471
55 1 1 1.0000 -9.725 8.329 -61.804
56 1 2 0.0000 -8.609 11.44 -70.053
57 1 14 0.0000 -9.835 9.322 -71.636
58 1 15 0.0000 -9.785 7.038 -72.777
59 1 15 0.0000 -11.395 8.796 -73.603
60 1 2 0.0000 -5.602 12.294 -71.444
61 1 6 0.0000 -3.874 11.49 -68.807
62 1 1 1.0000 -2.607 10.987 -66.881
63 1 2 0.0000 -3.552 12.264 -75.185
64 1 16 0.0000 -3.34 14.203 -76.341
65 1 2 0.0000 -0.759 9.819 -76.324
66 1 11 0.0000 -0.229 6.048 -77.267
67 1 6 0.0000 1.765 6.535 -79.351
68 1 2 0.0000 -1.719 4.538 -75.923
69 1 2 0.0000 -4.709 3.251 -77.191
70 1 2 0.0000 -2.123 2.956 -73.044
71 1 8 0.0000 -0.425 2.379 -70.659
72 1 12 0.0000 -5.975 2.668 -74.38
73 1 14 0.0000 -7.827 3.36 -71.692
74 1 15 0.0000 -10.381 3.221 -70.818
75 1 15 0.0000 -8.383 2.447 -69.334
76 1 12 0.0000 -7.932 -1.037 -73.758
77 1 2 0.0000 -5.928 -2.29 -70.969
78 1 8 0.0000 -4.401 -0.198 -69.454
79 1 12 0.0000 -5.683 -4.925 -70.311
80 1 10 0.0000 -4.314 -5.731 -67.747
81 1 10 0.0000 -4.113 -4.982 -65.111
82 1 10 0.0000 -5.006 -7.396 -65.601
83 1 12 0.0000 -5.697 -7.869 -72.247
84 1 2 0.0000 -5.248 -6.498 -75.631
85 1 7 0.0000 -3.986 -3.985 -75.247
86 1 1 1.0000 -3.1 -1.103 -75.789
87 1 2 0.0000 -3.459 -6.782 -79.494
88 1 6 0.0000 -1.802 -9.392 -80.782
89 1 1 1.0000 -0.691 -11.449 -80.591
90 1 12 0.0000 -1.278 -3.738 -80.076
91 1 16 0.0000 0.763 -3.772 -78.669
92 1 12 0.0000 -3.875 -2.185 -81.388
93 1 2 0.0000 -6.183 -0.8 -79.875
94 1 11 0.0000 -8.25 -3.581 -78.441
95 1 11 0.0000 -8.779 1.539 -80.496
96 1 7 0.0000 -9.599 3.462 -77.219
97 1 6 0.0000 -11.713 2.081 -75.429
98 1 12 0.0000 -9.194 6.329 -77.809
99 1 2 0.0000 -7.028 5.827 -81.279
100 1 10 0.0000 -6.847 8.355 -82.913
101 1 10 0.0000 -5.587 9.151 -85.153
102 1 10 0.0000 -6.957 11.074 -83.561
103 1 2 0.0000 -4.374 3.633 -82.895
104 1 16 0.0000 -5.085 2.072 -84.504
105 1 2 0.0000 -1.994 4.941 -82.447
106 1 14 0.0000 -2.596 7.676 -81.082
107 1 14 0.0000 -4.172 9.351 -79.676
108 1 15 0.0000 -2.274 10.422 -81.418
109 1 2 0.0000 -0.261 4.683 -85.645
110 1 16 0.0000 -1.589 5.742 -87.368
111 1 4 0.0000 2.283 2.81 -85.974
112 1 3 -1.0000 2.806 1.314 -88.622
113 1 7 0.0000 3.043 2.051 -83.19
114 1 12 0.0000 0.38 0.626 -82.432
115 1 2 0.0000 -0.58 1.432 -79.705
116 1 12 0.0000 0.45 -1.613 -84.618
117 1 6 0.0000 -2.083 -1.186 -86.62
118 1 1 1.0000 -1.786 1.076 -88.481
119 1 9 0.0000 3.202 -3.224 -83.269
120 1 2 0.0000 1.476 -6.151 -83.426
121 1 2 0.0000 5.693 -4.616 -81.659
122 1 6 0.0000 9.071 -5.015 -81.395
123 1 1 1.0000 10.717 -5.448 -78.739
124 1 2 0.0000 3.624 -7.583 -80.242
125 1 2 0.0000 2.345 -8.153 -77.321
126 1 8 0.0000 3.551 -11.279 -77.295
127 1 2 0.0000 -0.322 -8.44 -74.662
128 1 16 0.0000 -1.65 -10.595 -74.989
129 1 2 0.0000 -0.878 -8.63 -70.294
130 1 14 0.0000 -1.044 -5.436 -70.759
131 1 17 0.0000 -0.858 -2.823 -71.75
132 1 10 0.0000 0.236 -4.733 -72.933
133 1 10 0.0000 1.022 -2.303 -73.523
134 1 2 0.0000 -0.175 -8.399 -66.795
135 1 6 0.0000 1.158 -11.413 -65.697
136 1 1 1.0000 3.924 -11.568 -64.759
137 1 4 0.0000 2.571 -6.323 -66.576
138 1 3 -1.0000 4.862 -7.2 -62.916
139 1 4 0.0000 5.067 -7.3 -67.867
140 1 3 -1.0000 5.672 -7.5 -63.224
141 1 4 0.0000 4.401 -6.162 -70.967
142 1 16 0.0000 3.913 -8.367 -72.656
143 1 12 0.0000 4.388 -3.139 -69.951
144 1 8 0.0000 3.444 0.139 -70.054
145 1 9 0.0000 7.369 -2.861 -69.131
146 1 13 0.0000 10.173 -5.787 -67.754
147 1 9 0.0000 8.695 -3.098 -72.004
148 1 3 -1.0000 12.204 -3.295 -74.632
149 1 9 0.0000 7.107 -0.412 -73.258
150 1 14 0.0000 4.603 0.53 -74.49
151 1 14 0.0000 4.176 2.361 -76.416
152 1 15 0.0000 2.099 1.418 -75.603
153 1 12 0.0000 8.875 1.617 -71.543
154 1 8 0.0000 6.836 3.392 -70.053
155 1 12 0.0000 12.537 1.437 -72.293
156 1 3 -1.0000 16.268 0.808 -71.165
157 1 2 0.0000 12.667 3.832 -74.407
158 1 2 0.0000 16.227 4.251 -74.02
159 1 7 0.0000 9.503 3.714 -75.604
160 1 6 0.0000 8.1 5.781 -73.733
161 1 12 0.0000 10.516 3.12 -78.669
162 1 6 0.0000 12.217 5.865 -78.784
163 1 1 1.0000 12.097 8.05 -77.641
164 1 12 0.0000 11.525 -0.099 -78.534
165 1 6 0.0000 14.599 0.203 -77.446
166 1 1 1.0000 16.044 -0.901 -75.225
167 1 12 0.0000 8.573 -1.017 -77.705
168 1 14 0.0000 6.396 -3.264 -77.17
169 1 14 0.0000 4.546 -4.366 -75.707
170 1 15 0.0000 6.811 -5.6 -76.014
171 1 2 0.0000 7.032 0.772 -79.992
172 1 8 0.0000 4.502 -0.667 -79.872
173 1 7 0.0000 8.351 0.752 -83.004
174 1 6 0.0000 7.192 -1.048 -84.641
175 1 12 0.0000 8.936 4.547 -83.167
176 1 2 0.0000 6.72 7.077 -80.945
177 1 16 0.0000 6.53 5.612 -78.876
178 1 2 0.0000 4.488 6.649 -83.771
179 1 6 0.0000 7.158 5.172 -85.86
180 1 1 1.0000 6.911 2.85 -87.654
181 1 2 0.0000 2.848 8.293 -83.558
182 1 13 0.0000 1.454 10.259 -86.865
183 1 2 0.0000 3.295 11.36 -81.857
184 1 8 0.0000 1.206 13.844 -81.509
185 1 2 0.0000 4.141 10.737 -78.609
186 1 10 0.0000 3.136 13.136 -76.926
187 1 10 0.0000 4.257 14.625 -74.864
188 1 10 0.0000 1.546 14.517 -75.471
189 1 11 0.0000 7.254 9.964 -76.415
190 1 2 0.0000 8.396 10.221 -74.286
191 1 2 0.0000 11.904 8.198 -72.439
192 1 8 0.0000 12.896 9.368 -69.882
193 1 2 0.0000 11.614 4.957 -69.103
194 1 6 0.0000 14.651 5.346 -69.365
195 1 1 1.0000 17.042 4.553 -68.746
196 1 2 0.0000 15.335 1.232 -66.39
197 1 6 0.0000 16.848 2.698 -63.455
198 1 1 1.0000 16.445 4.601 -60.954
199 1 4 0.0000 14.872 -1.279 -63.956
200 1 6 0.0000 12.103 -3.905 -63.088
201 1 1 1.0000 9.262 -5.002 -61.801
202 1 4 0.0000 13.29 0.512 -61.925
203 1 16 0.0000 12.548 -0.707 -59.646
204 1 4 0.0000 12.245 2.727 -64.244
205 1 3 -1.0000 14.487 6.315 -64.732
206 1 4 0.0000 10.704 0.573 -65.831
207 1 7 0.0000 11.722 -0.567 -68.433
208 1 1 1.0000 13.484 -2.924 -69.952
209 1 7 0.0000 9.04 -0.619 -63.482
210 1 3 -1.0000 7.767 -1.381 -59.321
211 1 7 0.0000 7.271 2.15 -62.481
212 1 3 -1.0000 6.738 -0.424 -59.959
213 1 7 0.0000 5.931 2.457 -65.36
214 1 8 0.0000 6.594 5.672 -65.281
215 1 7 0.0000 4.228 -0.222 -65.012
216 1 8 0.0000 5.5 -2.946 -64.888
217 1 13 0.0000 2.545 0.838 -62.311
218 1 7 0.0000 0.938 2.857 -63.968
219 1 14 0.0000 1.722 5.302 -66.018
220 1 14 0.0000 2.611 5.431 -68.28
221 1 15 0.0000 1.139 7.492 -67.419
222 1 7 0.0000 -0.696 0.615 -65.717
223 1 8 0.0000 0.139 -1.959 -67.078
224 1 7 0.0000 -1.948 -0.902 -62.948
225 1 6 0.0000 0.77 -3.422 -62.11
226 1 1 1.0000 3.644 -3.651 -60.686
227 1 9 0.0000 -3.174 1.709 -61.949
228 1 6 0.0000 -3.337 2.585 -59.063
229 1 1 1.0000 -4.918 2.694 -57.197
230 1 7 0.0000 -5.066 2.252 -64.579
231 1 9 0.0000 -6.813 -0.507 -64.492
232 1 16 0.0000 -8.052 -1.57 -66.735
233 1 9 0.0000 -8.077 0.068 -61.581
234 1 2 0.0000 -6.531 -1.903 -59.307
235 1 3 -1.0000 -8.047 3.484 -61.319
236 1 3 -1.0000 -8.693 5.286 -58.7

Bonds

1 1 1 2
2 1 31 33
3 1 33 34
4 1 34 36
5 1 36 38
6 1 38 42
7 1 42 44
8 1 44 46
9 1 46 48
10 1 48 51
11 1 51 52
12 1 52 53
13 1 53 56
14 1 56 60
15 1 60 63
16 1 63 65
17 1 65 66
18 1 66 68
19 1 68 70
20 1 70 72
21 1 72 76
22 1 76 77
23 1 77 79
24 1 79 83
25 1 83 84
26 1 84 87
27 1 87 90
28 1 90 92
29 1 92 93
30 1 93 95
31 1 95 96
32 1 96 98
33 1 98 99
34 1 99 103
35 1 103 105
36 1 105 109
37 1 121 124
38 1 124 125
39 1 125 127
40 1 127 129
41 1 129 134
42 1 153 155
43 1 155 157
44 1 171 173
45 1 173 175
46 1 175 176
47 1 176 178
48 1 178 181
49 1 181 183
50 1 183 185
51 1 185 189
52 1 189 190
53 1 190 191
54 1 191 193
55 1 193 196
56 2 2 3
57 3 6 7
58 4 8 9
59 5 9 10
60 4 12 13
61 5 13 14
62 4 15 16
63 5 16 17
64 6 20 21
65 3 26 27
66 4 28 29
67 5 29 30
68 6 31 32
69 3 34 35
70 6 36 37
71 2 38 39
72 3 46 47
73 4 48 49
74 5 49 50
75 4 53 54
76 5 54 55
77 2 56 57
78 4 60 61
79 5 61 62
80 7 66 67
81 8 68 69
82 9 70 71
83 2 72 73
84 9 77 78
85 6 79 80
86 4 84 85
87 10 85 86
88 4 87 88
89 5 88 89
90 3 93 94
91 7 96 97
92 6 99 100
93 8 105 106
94 2 111 112
95 8 114 115
96 4 116 117
97 5 117 118
98 8 119 120
99 4 121 122
100 5 122 123
101 11 129 130
102 4 134 135
103 5 135 136
104 3 137 138
105 3 139 140
106 9 143 144
107 12 145 146
108 3 147 148
109 8 149 150
110 9 153 154
111 3 155 156
112 8 157 158
113 7 159 160
114 4 161 162
115 5 162 163
116 4 164 165
117 5 165 166
118 8 167 168
119 7 173 174
120 4 178 179
121 5 179 180
122 12 181 182
123 6 185 186
124 4 193 194
125 5 194 195
126 4 196 197
127 5 197 198
128 4 199 200
129 5 200 201
130 3 204 205
131 4 206 207
132 10 207 208
133 3 209 210
134 2 211 212
135 9 213 214
136 8 218 219
137 9 222 223
138 4 224 225
139 5 225 226
140 4 227 228
141 5 228 229
142 8 233 234
143 3 235 236
144 13 2 4
145 14 4 6
146 14 6 8
147 14 8 11
148 14 11 12
149 14 12 15
150 14 15 18
151 14 18 20
152 14 20 24
153 14 24 26
154 14 26 28
155 13 28 31
156 13 109 111
157 14 111 113
158 14 113 114
159 14 114 116
160 14 116 119
161 13 119 121
162 13 134 137
163 14 137 139
164 14 139 141
165 14 141 143
166 14 143 145
167 14 145 147
168 14 147 149
169 13 149 153
170 13 157 159
171 14 159 161
172 14 161 164
173 14 164 167
174 13 167 171
175 13 196 199
176 14 199 202
177 14 202 204
178 14 204 206
179 14 206 209
180 14 209 211
181 14 211 213
182 14 213 215
183 14 215 217
184 14 217 218
185 14 218 222
186 14 222 224
187 14 224 227
188 14 227 230
189 14 230 231
190 14 231 233
191 13 233 235
192 15 4 5
193 14 18 19
194 16 21 22
195 16 21 23
196 16 22 23
197 15 24 25
198 16 39 40
199 16 39 41
200 16 40 41
201 17 42 43
202 15 44 45
203 16 57 58
204 16 57 59
205 16 58 59
206 17 63 64
207 16 73 74
208 16 73 75
209 16 74 75
210 16 80 81
211 16 80 82
212 16 81 82
213 17 90 91
214 16 100 101
215 16 100 102
216 16 101 102
217 17 103 104
218 16 106 107
219 16 106 108
220 16 107 108
221 17 109 110
222 14 125 126
223 17 127 128
224 16 130 131
225 16 130 132
226 16 131 132
227 16 131 133
228 16 132 133
229 17 141 142
230 16 150 151
231 16 150 152
232 16 151 152
233 16 168 169
234 16 168 170
235 16 169 170
236 14 171 172
237 17 176 177
238 14 183 184
239 16 186 187
240 16 186 188
241 16 187 188
242 14 191 192
243 17 202 203
244 14 215 216
245 16 219 220
246 16 219 221
247 16 220 221
248 17 231 232

Angles

1 1 1 2 4
2 1 2 4 6
3 2 4 6 8
4 2 6 8 11
5 2 8 11 12
6 2 11 12 15
7 2 12 15 18
8 2 15 18 20
9 2 18 20 24
10 2 20 24 26
11 2 24 26 28
12 3 26 28 31
13 3 28 31 33
14 3 31 33 34
15 3 33 34 36
16 3 34 36 38
17 3 36 38 42
18 1 38 42 44
19 1 42 44 46
20 3 44 46 48
21 3 46 48 51
22 3 48 51 52
23 3 51 52 53
24 1 52 53 56
25 1 53 56 60
26 1 56 60 63
27 1 60 63 65
28 4 63 65 66
29 1 65 66 68
30 1 66 68 70
31 3 68 70 72
32 3 70 72 76
33 3 72 76 77
34 3 76 77 79
35 3 77 79 83
36 3 79 83 84
37 3 83 84 87
38 3 84 87 90
39 3 87 90 92
40 3 90 92 93
41 3 92 93 95
42 1 93 95 96
43 3 95 96 98
44 3 96 98 99
45 3 98 99 103
46 1 99 103 105
47 1 103 105 109
48 1 105 109 111
49 1 109 111 113
50 2 111 113 114
51 2 113 114 116
52 2 114 116 119
53 1 116 119 121
54 1 119 121 124
55 1 121 124 125
56 1 124 125 127
57 1 125 127 129
58 1 127 129 134
59 1 129 134 137
60 4 134 137 139
61 2 137 139 141
62 2 139 141 143
63 2 141 143 145
64 2 143 145 147
65 2 145 147 149
66 3 147 149 153
67 3 149 153 155
68 3 153 155 157
69 3 155 157 159
70 5 157 159 161
71 5 159 161 164
72 2 161 164 167
73 4 164 167 171
74 4 167 171 173
75 3 171 173 175
76 3 173 175 176
77 3 175 176 178
78 1 176 178 181
79 1 178 181 183
80 1 181 183 185
81 1 183 185 189
82 1 185 189 190
83 1 189 190 191
84 1 190 191 193
85 1 191 193 196
86 1 193 196 199
87 4 196 199 202
88 2 199 202 204
89 2 202 204 206
90 2 204 206 209
91 2 206 209 211
92 2 209 211 213
93 2 211 213 215
94 2 213 215 217
95 2 215 217 218
96 2 217 218 222
97 2 218 222 224
98 2 222 224 227
99 2 224 227 230
100 2 227 230 231
101 2 230 231 233
102 1 231 233 235
103 6 1 2 3
104 6 2 4 5
105 6 4 6 7
106 6 6 8 9
107 6 11 12 13
108 6 12 15 16
109 6 15 18 19
110 6 18 20 21
111 6 20 24 25
112 6 24 26 27
113 6 26 28 29
114 6 28 31 32
115 6 33 34 35
116 6 34 36 37
117 6 36 38 39
118 6 38 42 43
119 6 42 44 45
120 6 44 46 47
121 6 46 48 49
122 6 52 53 54
123 6 53 56 57
124 6 56 60 61
125 6 60 63 64
126 6 65 66 67
127 6 66 68 69
128 6 68 70 71
129 6 70 72 73
130 6 76 77 78
131 6 77 79 80
132 6 83 84 85
133 6 84 87 88
134 6 87 90 91
135 6 92 93 94
136 6 95 96 97
137 6 98 99 100
138 6 99 103 104
139 6 103 105 106
140 6 105 109 110
141 6 109 111 112
142 6 113 114 115
143 6 114 116 117
144 6 116 119 120
145 6 119 121 122
146 6 124 125 126
147 6 125 127 128
148 6 127 129 130
149 6 129 134 135
150 6 134 137 138
151 6 137 139 140
152 6 139 141 142
153 6 141 143 144
154 6 143 145 146
155 6 145 147 148
156 6 147 149 150
157 6 149 153 154
158 6 153 155 156
159 6 155 157 158
160 6 157 159 160
161 6 159 161 162
162 6 161 164 165
163 6 164 167 168
164 6 167 171 172
165 6 171 173 174
166 6 175 176 177
167 6 176 178 179
168 6 178 181 182
169 6 181 183 184
170 6 183 185 186
171 6 190 191 192
172 6 191 193 194
173 6 193 196 197
174 6 196 199 200
175 6 199 202 203
176 6 202 204 205
177 6 204 206 207
178 6 206 209 210
179 6 209 211 212
180 6 211 213 214
181 6 213 215 216
182 6 217 218 219
183 6 218 222 223
184 6 222 224 225
185 6 224 227 228
186 6 230 231 232
187 6 231 233 234
188 6 233 235 236
189 7 8 9 10
190 7 12 13 14
191 7 15 16 17
192 8 20 21 22
193 8 20 21 23
194 7 28 29 30
195 8 38 39 40
196 8 38 39 41
197 7 48 49 50
198 7 53 54 55
199 8 56 57 58
200 8 56 57 59
201 7 60 61 62
202 8 72 73 74
203 8 72 73 75
204 8 79 80 81
205 8 79 80 82
206 7 84 85 86
207 7 87 88 89
208 8 99 100 101
209 8 99 100 102
210 8 105 106 107
211 8 105 106 108
212 7 116 117 118
213 7 121 122 123
214 9 129 130 131
215 10 129 130 132
216 7 134 135 136
217 8 149 150 151
218 8 149 150 152
219 7 161 162 163
220 7 164 165 166
221 8 167 168 169
222 8 167 168 170
223 7 178 179 180
224 8 185 186 187
225 8 185 186 188
226 7 193 194 195
227 7 196 197 198
228 7 199 200 201
229 7 206 207 208
230 8 218 219 220
231 8 218 219 221
232 7 224 225 226
233 7 227 228 229

Dihedrals

1 1 4 6 8 11
2 1 6 8 11 12
3 1 8 11 12 15
4 1 11 12 15 18
5 1 12 15 18 20
6 1 15 18 20 24
7 1 18 20 24 26
8 1 20 24 26 28
9 1 111 113 114 116
10 1 113 114 116 119
11 1 137 139 141 143
12 1 139 141 143 145
13 1 141 143 145 147
14 1 143 145 147 149
15 1 159 161 164 167
16 1 199 202 204 206
17 1 202 204 206 209
18 1 204 206 209 211
19 1 206 209 211 213
20 1 209 211 213 215
21 1 211 213 215 217
22 1 213 215 217 218
23 1 215 217 218 222
24 1 217 218 222 224
25 1 218 222 224 227
26 1 222 224 227 230
27 1 224 227 230 231
28 1 227 230 231 233

Impropers

1 1 20 22 23 21
2 1 38 40 41 39
3 1 56 58 59 57
4 1 72 74 75 73
5 1 79 81 82 80
6 1 99 101 102 100
7 1 105 107 108 106
8 1 129 131 132 130
9 2 130 131 133 132
10 1 149 151 152 150
11 1 167 169 170 168
12 1 185 187 188 186
13 1 218 220 221 219

