comment

236 atoms
248 bonds
233 angles
28 dihedrals
13 impropers

17 atom types
17 bond types
10 angle types
1 dihedral types
2 improper types

-40.5 40.5 xlo xhi
-40.5 40.5 ylo yhi
-190.0 190.0 zlo zhi

Masses

1 72.0
2 72.0
3 72.0
4 72.0
5 72.0
6 72.0
7 72.0
8 72.0
9 72.0
10 45.0
11 72.0
12 72.0
13 72.0
14 45.0
15 45.0
16 72.0
17 45.0

PairIJ Coeffs

1 1 1.19503 4.699999999999999
1 2 1.3384336 4.699999999999999
1 3 1.3384336 4.699999999999999
1 4 0.956024 4.699999999999999
1 5 0.478012 4.699999999999999
1 6 0.5497137999999999 4.699999999999999
1 7 0.836521 4.699999999999999
1 8 0.478012 4.699999999999999
1 9 1.19503 4.699999999999999
1 10 0.7409186 4.699999999999999
1 11 1.3384336 4.699999999999999
1 12 1.19503 4.699999999999999
1 13 0.7409186 4.699999999999999
1 14 0.6453162 4.699999999999999
1 15 1.19503 4.699999999999999
1 16 1.19503 4.699999999999999
1 17 0.956024 4.699999999999999
2 2 1.3384336 4.699999999999999
2 3 1.3384336 4.699999999999999
2 4 1.19503 4.699999999999999
2 5 0.5497137999999999 4.699999999999999
2 6 0.6453162 4.699999999999999
2 7 0.836521 4.699999999999999
2 8 0.478012 4.699999999999999
2 9 1.19503 4.699999999999999
2 10 0.7409186 4.699999999999999
2 11 1.3384336 4.699999999999999
2 12 1.19503 4.699999999999999
2 13 0.7409186 4.699999999999999
2 14 0.6453162 4.699999999999999
2 15 1.3384336 4.699999999999999
2 16 1.3384336 4.699999999999999
2 17 1.19503 4.699999999999999
3 3 1.19503 4.699999999999999
3 4 1.19503 4.699999999999999
3 5 0.478012 4.699999999999999
3 6 0.5497137999999999 4.699999999999999
3 7 0.836521 4.699999999999999
3 8 0.478012 4.699999999999999
3 9 0.956024 4.699999999999999
3 10 0.7409186 4.699999999999999
3 11 1.3384336 4.699999999999999
3 12 1.19503 4.699999999999999
3 13 0.7409186 4.699999999999999
3 14 0.6453162 4.699999999999999
3 15 1.19503 4.699999999999999
3 16 1.19503 4.699999999999999
3 17 1.19503 4.699999999999999
4 4 0.956024 4.699999999999999
4 5 0.6453162 4.699999999999999
4 6 0.6453162 4.699999999999999
4 7 0.836521 4.699999999999999
4 8 0.6453162 4.699999999999999
4 9 1.075527 4.699999999999999
4 10 0.836521 4.699999999999999
4 11 0.956024 4.699999999999999
4 12 1.075527 4.699999999999999
4 13 0.836521 4.699999999999999
4 14 0.7409186 4.699999999999999
4 15 1.075527 4.699999999999999
4 16 1.075527 4.699999999999999
4 17 0.956024 4.699999999999999
5 5 0.836521 4.699999999999999
5 6 0.836521 4.699999999999999
5 7 0.7409186 4.699999999999999
5 8 0.836521 4.699999999999999
5 9 0.6453162 4.699999999999999
5 10 0.7409186 4.699999999999999
5 11 0.5497137999999999 4.699999999999999
5 12 0.6453162 4.699999999999999
5 13 0.7409186 4.699999999999999
5 14 0.7409186 4.699999999999999
5 15 0.7409186 4.699999999999999
5 16 0.7409186 4.699999999999999
5 17 0.6453162 4.699999999999999
6 6 0.836521 4.699999999999999
6 7 0.836521 4.699999999999999
6 8 0.836521 4.699999999999999
6 9 0.6453162 4.699999999999999
6 10 0.836521 4.699999999999999
6 11 0.6453162 4.699999999999999
6 12 0.6453162 4.699999999999999
6 13 0.836521 4.699999999999999
6 14 0.836521 4.699999999999999
6 15 0.836521 4.699999999999999
6 16 0.836521 4.699999999999999
6 17 0.6453162 4.699999999999999
7 7 0.836521 4.699999999999999
7 8 0.6453162 4.699999999999999
7 9 0.836521 4.699999999999999
7 10 0.836521 4.699999999999999
7 11 0.836521 4.699999999999999
7 12 0.836521 4.699999999999999
7 13 0.836521 4.699999999999999
7 14 0.836521 4.699999999999999
7 15 0.956024 4.699999999999999
7 16 0.956024 4.699999999999999
7 17 0.836521 4.699999999999999
8 8 0.836521 4.699999999999999
8 9 0.6453162 4.699999999999999
8 10 0.7409186 4.699999999999999
8 11 0.478012 4.699999999999999
8 12 0.6453162 4.699999999999999
8 13 0.7409186 4.699999999999999
8 14 0.7409186 4.699999999999999
8 15 0.6453162 4.699999999999999
8 16 0.6453162 4.699999999999999
8 17 0.6453162 4.699999999999999
9 9 0.956024 4.699999999999999
9 10 0.836521 4.699999999999999
9 11 0.956024 4.699999999999999
9 12 1.075527 4.699999999999999
9 13 0.836521 4.699999999999999
9 14 0.7409186 4.699999999999999
9 15 1.075527 4.699999999999999
9 16 1.075527 4.699999999999999
9 17 1.075527 4.699999999999999
10 10 0.62739075 4.3
10 11 0.7409186 4.699999999999999
10 12 0.836521 4.699999999999999
10 13 0.836521 4.699999999999999
10 14 0.62739075 4.3
10 15 0.62739075 4.3
10 16 0.836521 4.699999999999999
10 17 0.62739075 4.3
11 11 1.19503 4.699999999999999
11 12 0.956024 4.699999999999999
11 13 0.7409186 4.699999999999999
11 14 0.6453162 4.699999999999999
11 15 1.075527 4.699999999999999
11 16 1.075527 4.699999999999999
11 17 0.956024 4.699999999999999
12 12 1.075527 4.699999999999999
12 13 0.836521 4.699999999999999
12 14 0.7409186 4.699999999999999
12 15 1.075527 4.699999999999999
12 16 1.075527 4.699999999999999
12 17 1.075527 4.699999999999999
13 13 0.836521 4.699999999999999
13 14 0.836521 4.699999999999999
13 15 0.836521 4.699999999999999
13 16 0.836521 4.699999999999999
13 17 0.836521 4.699999999999999
14 14 0.62739075 4.3
14 15 0.62739075 4.3
14 16 0.836521 4.699999999999999
14 17 0.5556889500000001 4.3
15 15 0.80664525 4.3
15 16 1.075527 4.699999999999999
15 17 0.80664525 4.3
16 16 1.075527 4.699999999999999
16 17 1.075527 4.699999999999999
17 17 0.7170179999999999 4.3

Bond Coeffs

1 1.4937875 3.5
2 8.962725 3.2
3 5.97515 4.0
4 5.97515 3.3000000000000003
5 5.97515 2.8000000000000003
6 8.962725 3.1
7 8.962725 3.0
8 5.97515 3.2
9 8.962725 3.3000000000000003
10 5.97515 3.4000000000000004
11 5.97515 3.0
12 2.987575 4.0
13 11.9503 3.3000000000000003
14 11.9503 3.1
15 11.9503 2.6500000000000004
16 11.9503 2.7
17 11.9503 2.6

Angle Coeffs

1 2.39006 127
2 83.6521 96
3 2.39006 100
4 2.39006 130
5 11.9503 98
6 2.987575 100
7 2.987575 180
8 5.97515 150
9 5.97515 210
10 5.97515 90

Dihedral Coeffs

1 95.6024 1 -120 0

Improper Coeffs

1 5.97515 0
2 23.9006 0

Atoms

1 1 1 1.0000 -0.367 2.071 52.92
2 1 2 0.0000 -1.961 0.737 5.211
3 1 3 -1.0000 -1.891 -1.141 -6.153
4 1 4 0.0000 -1.734 -1.068 4.484
5 1 5 0.0000 -1.003 -1.94 8.115
6 1 4 0.0000 -2.099 -0.126 -0.471
7 1 3 -1.0000 -1.913 0.489 -26.053
8 1 4 0.0000 -1.437 -1.439 8.758
9 1 6 0.0000 -0.488 -1.52 26.248
10 1 1 1.0000 0.366 -1.189 42.558
11 1 4 0.0000 0.267 -2.013 3.203
12 1 7 0.0000 -1.825 1.153 0.993
13 1 6 0.0000 -2.23 0.422 19.968
14 1 1 1.0000 -1.157 0.175 37.884
15 1 7 0.0000 -1.096 1.997 -8.547
16 1 6 0.0000 1.308 -1.813 2.065
17 1 1 1.0000 0.741 1.003 12.405
18 1 7 0.0000 -1.546 1.0 -21.581
19 1 8 0.0000 0.347 2.122 -22.793
20 1 9 0.0000 -1.982 0.143 -33.01
21 1 10 0.0000 -2.018 0.707 -38.403
22 1 10 0.0000 -1.403 1.274 -41.219
23 1 10 0.0000 -1.754 -0.88 -40.983
24 1 9 0.0000 -1.569 1.261 -42.8
25 1 5 0.0000 -0.467 2.22 -45.863
26 1 9 0.0000 -0.07 3.161 -52.633
27 1 11 0.0000 -0.545 7.557 -54.48
28 1 9 0.0000 2.688 3.977 -54.248
29 1 6 0.0000 5.472 6.566 -54.009
30 1 1 1.0000 7.656 7.56 -52.708
31 1 12 0.0000 1.069 7.089 -55.115
32 1 13 0.0000 3.756 8.969 -54.404
33 1 7 0.0000 1.269 7.965 -58.611
34 1 12 0.0000 2.361 10.914 -58.51
35 1 11 0.0000 1.957 13.381 -55.56
36 1 12 0.0000 3.102 10.245 -62.208
37 1 13 0.0000 0.039 11.073 -62.575
38 1 2 0.0000 1.898 5.886 -61.489
39 1 14 0.0000 2.396 2.563 -61.997
40 1 15 0.0000 2.422 -0.049 -61.453
41 1 15 0.0000 4.348 1.101 -62.512
42 1 2 0.0000 -0.114 6.375 -63.553
43 1 16 0.0000 0.733 7.447 -66.112
44 1 2 0.0000 -5.401 5.605 -66.197
45 1 5 0.0000 -5.141 3.679 -64.242
46 1 2 0.0000 -6.923 3.401 -70.199
47 1 3 -1.0000 -7.214 3.542 -76.067
48 1 12 0.0000 -6.561 2.02 -61.24
49 1 6 0.0000 -4.614 -0.004 -57.289
50 1 1 1.0000 -2.665 -0.367 -53.454
51 1 12 0.0000 -9.053 6.167 -61.665
52 1 2 0.0000 -11.168 5.65 -58.682
53 1 2 0.0000 -7.538 3.682 -57.827
54 1 6 0.0000 -8.061 5.129 -54.603
55 1 1 1.0000 -7.581 7.531 -52.906
56 1 2 0.0000 -3.67 3.772 -54.75
57 1 14 0.0000 -3.787 5.949 -57.166
58 1 15 0.0000 -5.597 7.42 -58.077
59 1 15 0.0000 -3.187 7.314 -59.528
60 1 2 0.0000 -0.447 2.072 -29.78
61 1 6 0.0000 -1.598 -1.806 -9.788
62 1 1 1.0000 -0.943 -1.135 16.209
63 1 2 0.0000 -2.487 11.715 -57.303
64 1 16 0.0000 -3.155 11.847 -54.772
65 1 2 0.0000 -4.896 12.209 -59.651
66 1 11 0.0000 -2.988 10.137 -66.287
67 1 6 0.0000 -1.137 12.141 -67.569
68 1 2 0.0000 0.89 7.221 -71.767
69 1 2 0.0000 -0.199 10.183 -71.82
70 1 2 0.0000 1.554 1.623 -70.649
71 1 8 0.0000 -0.8 -0.76 -71.486
72 1 12 0.0000 -1.027 2.936 -68.223
73 1 14 0.0000 -3.339 0.679 -68.901
74 1 15 0.0000 -5.116 -0.363 -67.002
75 1 15 0.0000 -3.659 -1.972 -68.048
76 1 12 0.0000 -0.177 1.302 -65.643
77 1 2 0.0000 -1.672 -1.815 -63.505
78 1 8 0.0000 -3.112 -4.424 -64.077
79 1 12 0.0000 -2.409 0.224 -61.625
80 1 10 0.0000 -1.369 2.116 -59.926
81 1 10 0.0000 -0.284 3.388 -58.014
82 1 10 0.0000 -0.03 1.076 -57.54
83 1 12 0.0000 0.792 0.257 -56.004
84 1 2 0.0000 1.999 -0.034 -39.01
85 1 7 0.0000 2.091 0.285 -26.588
86 1 1 1.0000 -0.954 0.787 -12.699
87 1 2 0.0000 -3.498 -4.194 -55.246
88 1 6 0.0000 -6.509 -5.095 -54.236
89 1 1 1.0000 -7.629 -7.402 -52.932
90 1 12 0.0000 -5.666 -4.887 -59.118
91 1 16 0.0000 -7.099 -6.759 -57.881
92 1 12 0.0000 -6.985 -2.566 -62.193
93 1 2 0.0000 -10.407 -1.784 -64.197
94 1 11 0.0000 -9.648 1.509 -66.029
95 1 11 0.0000 -9.293 -3.245 -67.832
96 1 7 0.0000 -7.723 -2.308 -71.404
97 1 6 0.0000 -9.434 -0.289 -72.867
98 1 12 0.0000 -4.948 -2.742 -74.715
99 1 2 0.0000 -3.512 -0.021 -77.582
100 1 10 0.0000 -2.483 1.959 -75.243
101 1 10 0.0000 -0.128 3.197 -74.727
102 1 10 0.0000 -2.512 3.824 -73.271
103 1 2 0.0000 -0.341 -3.088 -78.045
104 1 16 0.0000 -1.231 -3.866 -75.54
105 1 2 0.0000 2.635 -6.51 -76.895
106 1 14 0.0000 4.629 -6.464 -79.266
107 1 14 0.0000 5.855 -5.281 -81.241
108 1 15 0.0000 6.177 -7.951 -80.972
109 1 2 0.0000 1.959 -10.944 -75.278
110 1 16 0.0000 4.15 -11.879 -75.916
111 1 4 0.0000 -0.603 -9.293 -74.238
112 1 3 -1.0000 -1.076 -9.407 -78.896
113 1 7 0.0000 0.606 -6.828 -72.065
114 1 12 0.0000 -1.349 -6.389 -68.926
115 1 2 0.0000 -4.094 -5.931 -70.692
116 1 12 0.0000 -0.766 -8.833 -66.117
117 1 6 0.0000 -0.938 -8.285 -61.59
118 1 1 1.0000 -1.293 -7.455 -57.686
119 1 9 0.0000 2.356 -8.39 -65.286
120 1 2 0.0000 4.558 -6.56 -68.255
121 1 2 0.0000 1.226 -9.548 -61.319
122 1 6 0.0000 3.021 -8.763 -57.298
123 1 1 1.0000 2.514 -9.642 -53.793
124 1 2 0.0000 -6.081 -9.338 -62.5
125 1 2 0.0000 -6.585 -11.833 -58.46
126 1 8 0.0000 -4.245 -13.309 -59.802
127 1 2 0.0000 0.047 -12.017 -57.757
128 1 16 0.0000 1.208 -13.834 -56.33
129 1 2 0.0000 -0.293 -1.997 -47.198
130 1 14 0.0000 -2.309 -7.995 -53.606
131 1 17 0.0000 -4.074 -9.733 -54.719
132 1 10 0.0000 -1.98 -10.841 -53.827
133 1 10 0.0000 -3.553 -12.455 -54.573
134 1 2 0.0000 -0.015 -2.197 -23.755
135 1 6 0.0000 0.186 -2.276 -2.708
136 1 1 1.0000 0.754 -0.931 22.08
137 1 4 0.0000 -0.251 -2.159 -36.249
138 1 3 -1.0000 -0.125 -2.249 -50.002
139 1 4 0.0000 -0.598 -1.962 -45.692
140 1 3 -1.0000 1.157 -5.456 -54.622
141 1 4 0.0000 0.555 -2.382 -51.828
142 1 16 0.0000 1.064 -3.955 -53.83
143 1 12 0.0000 1.761 -3.621 -57.937
144 1 8 0.0000 -0.965 -3.308 -59.113
145 1 9 0.0000 2.241 -4.647 -62.532
146 1 13 0.0000 5.214 -6.722 -61.217
147 1 9 0.0000 1.815 -3.078 -66.696
148 1 3 -1.0000 3.003 -2.781 -72.711
149 1 9 0.0000 3.941 -0.724 -67.239
150 1 14 0.0000 4.193 2.185 -66.665
151 1 14 0.0000 4.402 4.592 -65.384
152 1 15 0.0000 4.551 4.281 -67.924
153 1 12 0.0000 5.796 -0.848 -70.409
154 1 8 0.0000 8.216 -2.649 -71.856
155 1 12 0.0000 10.448 -1.515 -76.769
156 1 3 -1.0000 9.604 -1.965 -82.485
157 1 2 0.0000 14.76 -2.112 -69.506
158 1 2 0.0000 13.298 -4.698 -70.599
159 1 7 0.0000 15.067 -2.122 -65.494
160 1 6 0.0000 16.196 0.448 -64.74
161 1 12 0.0000 14.612 -2.872 -61.658
162 1 6 0.0000 16.062 -3.232 -57.528
163 1 1 1.0000 17.122 -3.491 -53.746
164 1 12 0.0000 11.79 -3.998 -59.838
165 1 6 0.0000 11.293 -4.402 -55.947
166 1 1 1.0000 10.129 -2.51 -53.496
167 1 12 0.0000 11.772 -6.546 -61.009
168 1 14 0.0000 10.181 -7.685 -63.24
169 1 14 0.0000 9.831 -10.344 -64.043
170 1 15 0.0000 9.013 -8.576 -65.61
171 1 2 0.0000 14.916 -6.848 -62.068
172 1 8 0.0000 15.835 -9.211 -60.498
173 1 7 0.0000 13.513 -6.477 -65.731
174 1 6 0.0000 14.117 -8.752 -67.228
175 1 12 0.0000 10.155 -3.217 -67.284
176 1 2 0.0000 8.541 0.795 -64.766
177 1 16 0.0000 10.729 -0.025 -63.511
178 1 2 0.0000 9.106 4.842 -65.678
179 1 6 0.0000 7.237 6.809 -62.144
180 1 1 1.0000 5.847 7.073 -58.432
181 1 2 0.0000 7.904 9.297 -66.915
182 1 13 0.0000 4.511 9.425 -68.732
183 1 2 0.0000 5.535 12.907 -65.672
184 1 8 0.0000 4.305 12.966 -68.75
185 1 2 0.0000 1.711 14.94 -64.652
186 1 10 0.0000 3.301 17.261 -65.045
187 1 10 0.0000 5.422 18.375 -63.782
188 1 10 0.0000 5.478 17.827 -66.473
189 1 11 0.0000 4.481 14.446 -60.71
190 1 2 0.0000 7.175 12.257 -58.324
191 1 2 0.0000 9.849 9.472 -58.3
192 1 8 0.0000 10.795 10.208 -61.172
193 1 2 0.0000 13.082 5.775 -58.1
194 1 6 0.0000 15.092 6.747 -55.195
195 1 1 1.0000 17.384 7.784 -53.112
196 1 2 0.0000 13.947 1.528 -58.168
197 1 6 0.0000 15.561 1.705 -55.171
198 1 1 1.0000 17.463 2.214 -53.013
199 1 4 0.0000 11.045 -0.068 -57.509
200 1 6 0.0000 9.981 2.163 -54.958
201 1 1 1.0000 7.526 2.342 -54.892
202 1 4 0.0000 8.183 0.451 -59.158
203 1 16 0.0000 8.77 2.988 -60.169
204 1 4 0.0000 6.057 -2.55 -58.736
205 1 3 -1.0000 6.62 -3.538 -64.354
206 1 4 0.0000 5.877 -2.902 -54.762
207 1 7 0.0000 6.053 -5.809 -54.75
208 1 1 1.0000 7.608 -7.579 -52.807
209 1 7 0.0000 4.096 -0.238 -53.225
210 1 3 -1.0000 4.39 2.751 -57.945
211 1 7 0.0000 2.32 -0.13 -43.424
212 1 3 -1.0000 2.071 1.07 -49.999
213 1 7 0.0000 1.841 -0.822 -31.958
214 1 8 0.0000 0.051 -2.09 -29.676
215 1 7 0.0000 1.943 -1.042 -20.43
216 1 8 0.0000 -0.659 -2.056 -18.649
217 1 13 0.0000 2.238 -0.238 -10.762
218 1 7 0.0000 2.038 0.78 -0.93
219 1 14 0.0000 2.045 -0.971 -6.492
220 1 14 0.0000 2.117 -0.673 -8.239
221 1 15 0.0000 2.174 -0.202 -10.024
222 1 7 0.0000 1.495 1.572 7.828
223 1 8 0.0000 1.442 1.91 3.492
224 1 7 0.0000 0.737 1.979 17.842
225 1 6 0.0000 -0.054 1.452 32.44
226 1 1 1.0000 -0.249 1.433 46.504
227 1 9 0.0000 2.083 0.793 17.791
228 1 6 0.0000 1.69 0.285 34.031
229 1 1 1.0000 0.165 -1.511 49.948
230 1 7 0.0000 1.294 1.33 7.592
231 1 9 0.0000 0.365 1.993 -4.583
232 1 16 0.0000 -0.82 1.853 -3.788
233 1 9 0.0000 0.63 2.005 -18.341
234 1 2 0.0000 1.854 -0.025 -15.842
235 1 3 -1.0000 0.622 2.039 -35.458
236 1 3 -1.0000 -1.92 1.239 -49.836

Bonds

1 1 1 2
2 1 31 33
3 1 33 34
4 1 34 36
5 1 36 38
6 1 38 42
7 1 42 44
8 1 44 46
9 1 46 48
10 1 48 51
11 1 51 52
12 1 52 53
13 1 53 56
14 1 56 60
15 1 60 63
16 1 63 65
17 1 65 66
18 1 66 68
19 1 68 70
20 1 70 72
21 1 72 76
22 1 76 77
23 1 77 79
24 1 79 83
25 1 83 84
26 1 84 87
27 1 87 90
28 1 90 92
29 1 92 93
30 1 93 95
31 1 95 96
32 1 96 98
33 1 98 99
34 1 99 103
35 1 103 105
36 1 105 109
37 1 121 124
38 1 124 125
39 1 125 127
40 1 127 129
41 1 129 134
42 1 153 155
43 1 155 157
44 1 171 173
45 1 173 175
46 1 175 176
47 1 176 178
48 1 178 181
49 1 181 183
50 1 183 185
51 1 185 189
52 1 189 190
53 1 190 191
54 1 191 193
55 1 193 196
56 2 2 3
57 3 6 7
58 4 8 9
59 5 9 10
60 4 12 13
61 5 13 14
62 4 15 16
63 5 16 17
64 6 20 21
65 3 26 27
66 4 28 29
67 5 29 30
68 6 31 32
69 3 34 35
70 6 36 37
71 2 38 39
72 3 46 47
73 4 48 49
74 5 49 50
75 4 53 54
76 5 54 55
77 2 56 57
78 4 60 61
79 5 61 62
80 7 66 67
81 8 68 69
82 9 70 71
83 2 72 73
84 9 77 78
85 6 79 80
86 4 84 85
87 10 85 86
88 4 87 88
89 5 88 89
90 3 93 94
91 7 96 97
92 6 99 100
93 8 105 106
94 2 111 112
95 8 114 115
96 4 116 117
97 5 117 118
98 8 119 120
99 4 121 122
100 5 122 123
101 11 129 130
102 4 134 135
103 5 135 136
104 3 137 138
105 3 139 140
106 9 143 144
107 12 145 146
108 3 147 148
109 8 149 150
110 9 153 154
111 3 155 156
112 8 157 158
113 7 159 160
114 4 161 162
115 5 162 163
116 4 164 165
117 5 165 166
118 8 167 168
119 7 173 174
120 4 178 179
121 5 179 180
122 12 181 182
123 6 185 186
124 4 193 194
125 5 194 195
126 4 196 197
127 5 197 198
128 4 199 200
129 5 200 201
130 3 204 205
131 4 206 207
132 10 207 208
133 3 209 210
134 2 211 212
135 9 213 214
136 8 218 219
137 9 222 223
138 4 224 225
139 5 225 226
140 4 227 228
141 5 228 229
142 8 233 234
143 3 235 236
144 13 2 4
145 14 4 6
146 14 6 8
147 14 8 11
148 14 11 12
149 14 12 15
150 14 15 18
151 14 18 20
152 14 20 24
153 14 24 26
154 14 26 28
155 13 28 31
156 13 109 111
157 14 111 113
158 14 113 114
159 14 114 116
160 14 116 119
161 13 119 121
162 13 134 137
163 14 137 139
164 14 139 141
165 14 141 143
166 14 143 145
167 14 145 147
168 14 147 149
169 13 149 153
170 13 157 159
171 14 159 161
172 14 161 164
173 14 164 167
174 13 167 171
175 13 196 199
176 14 199 202
177 14 202 204
178 14 204 206
179 14 206 209
180 14 209 211
181 14 211 213
182 14 213 215
183 14 215 217
184 14 217 218
185 14 218 222
186 14 222 224
187 14 224 227
188 14 227 230
189 14 230 231
190 14 231 233
191 13 233 235
192 15 4 5
193 14 18 19
194 16 21 22
195 16 21 23
196 16 22 23
197 15 24 25
198 16 39 40
199 16 39 41
200 16 40 41
201 17 42 43
202 15 44 45
203 16 57 58
204 16 57 59
205 16 58 59
206 17 63 64
207 16 73 74
208 16 73 75
209 16 74 75
210 16 80 81
211 16 80 82
212 16 81 82
213 17 90 91
214 16 100 101
215 16 100 102
216 16 101 102
217 17 103 104
218 16 106 107
219 16 106 108
220 16 107 108
221 17 109 110
222 14 125 126
223 17 127 128
224 16 130 131
225 16 130 132
226 16 131 132
227 16 131 133
228 16 132 133
229 17 141 142
230 16 150 151
231 16 150 152
232 16 151 152
233 16 168 169
234 16 168 170
235 16 169 170
236 14 171 172
237 17 176 177
238 14 183 184
239 16 186 187
240 16 186 188
241 16 187 188
242 14 191 192
243 17 202 203
244 14 215 216
245 16 219 220
246 16 219 221
247 16 220 221
248 17 231 232

Angles

1 1 1 2 4
2 1 2 4 6
3 2 4 6 8
4 2 6 8 11
5 2 8 11 12
6 2 11 12 15
7 2 12 15 18
8 2 15 18 20
9 2 18 20 24
10 2 20 24 26
11 2 24 26 28
12 3 26 28 31
13 3 28 31 33
14 3 31 33 34
15 3 33 34 36
16 3 34 36 38
17 3 36 38 42
18 1 38 42 44
19 1 42 44 46
20 3 44 46 48
21 3 46 48 51
22 3 48 51 52
23 3 51 52 53
24 1 52 53 56
25 1 53 56 60
26 1 56 60 63
27 1 60 63 65
28 4 63 65 66
29 1 65 66 68
30 1 66 68 70
31 3 68 70 72
32 3 70 72 76
33 3 72 76 77
34 3 76 77 79
35 3 77 79 83
36 3 79 83 84
37 3 83 84 87
38 3 84 87 90
39 3 87 90 92
40 3 90 92 93
41 3 92 93 95
42 1 93 95 96
43 3 95 96 98
44 3 96 98 99
45 3 98 99 103
46 1 99 103 105
47 1 103 105 109
48 1 105 109 111
49 1 109 111 113
50 2 111 113 114
51 2 113 114 116
52 2 114 116 119
53 1 116 119 121
54 1 119 121 124
55 1 121 124 125
56 1 124 125 127
57 1 125 127 129
58 1 127 129 134
59 1 129 134 137
60 4 134 137 139
61 2 137 139 141
62 2 139 141 143
63 2 141 143 145
64 2 143 145 147
65 2 145 147 149
66 3 147 149 153
67 3 149 153 155
68 3 153 155 157
69 3 155 157 159
70 5 157 159 161
71 5 159 161 164
72 2 161 164 167
73 4 164 167 171
74 4 167 171 173
75 3 171 173 175
76 3 173 175 176
77 3 175 176 178
78 1 176 178 181
79 1 178 181 183
80 1 181 183 185
81 1 183 185 189
82 1 185 189 190
83 1 189 190 191
84 1 190 191 193
85 1 191 193 196
86 1 193 196 199
87 4 196 199 202
88 2 199 202 204
89 2 202 204 206
90 2 204 206 209
91 2 206 209 211
92 2 209 211 213
93 2 211 213 215
94 2 213 215 217
95 2 215 217 218
96 2 217 218 222
97 2 218 222 224
98 2 222 224 227
99 2 224 227 230
100 2 227 230 231
101 2 230 231 233
102 1 231 233 235
103 6 1 2 3
104 6 2 4 5
105 6 4 6 7
106 6 6 8 9
107 6 11 12 13
108 6 12 15 16
109 6 15 18 19
110 6 18 20 21
111 6 20 24 25
112 6 24 26 27
113 6 26 28 29
114 6 28 31 32
115 6 33 34 35
116 6 34 36 37
117 6 36 38 39
118 6 38 42 43
119 6 42 44 45
120 6 44 46 47
121 6 46 48 49
122 6 52 53 54
123 6 53 56 57
124 6 56 60 61
125 6 60 63 64
126 6 65 66 67
127 6 66 68 69
128 6 68 70 71
129 6 70 72 73
130 6 76 77 78
131 6 77 79 80
132 6 83 84 85
133 6 84 87 88
134 6 87 90 91
135 6 92 93 94
136 6 95 96 97
137 6 98 99 100
138 6 99 103 104
139 6 103 105 106
140 6 105 109 110
141 6 109 111 112
142 6 113 114 115
143 6 114 116 117
144 6 116 119 120
145 6 119 121 122
146 6 124 125 126
147 6 125 127 128
148 6 127 129 130
149 6 129 134 135
150 6 134 137 138
151 6 137 139 140
152 6 139 141 142
153 6 141 143 144
154 6 143 145 146
155 6 145 147 148
156 6 147 149 150
157 6 149 153 154
158 6 153 155 156
159 6 155 157 158
160 6 157 159 160
161 6 159 161 162
162 6 161 164 165
163 6 164 167 168
164 6 167 171 172
165 6 171 173 174
166 6 175 176 177
167 6 176 178 179
168 6 178 181 182
169 6 181 183 184
170 6 183 185 186
171 6 190 191 192
172 6 191 193 194
173 6 193 196 197
174 6 196 199 200
175 6 199 202 203
176 6 202 204 205
177 6 204 206 207
178 6 206 209 210
179 6 209 211 212
180 6 211 213 214
181 6 213 215 216
182 6 217 218 219
183 6 218 222 223
184 6 222 224 225
185 6 224 227 228
186 6 230 231 232
187 6 231 233 234
188 6 233 235 236
189 7 8 9 10
190 7 12 13 14
191 7 15 16 17
192 8 20 21 22
193 8 20 21 23
194 7 28 29 30
195 8 38 39 40
196 8 38 39 41
197 7 48 49 50
198 7 53 54 55
199 8 56 57 58
200 8 56 57 59
201 7 60 61 62
202 8 72 73 74
203 8 72 73 75
204 8 79 80 81
205 8 79 80 82
206 7 84 85 86
207 7 87 88 89
208 8 99 100 101
209 8 99 100 102
210 8 105 106 107
211 8 105 106 108
212 7 116 117 118
213 7 121 122 123
214 9 129 130 131
215 10 129 130 132
216 7 134 135 136
217 8 149 150 151
218 8 149 150 152
219 7 161 162 163
220 7 164 165 166
221 8 167 168 169
222 8 167 168 170
223 7 178 179 180
224 8 185 186 187
225 8 185 186 188
226 7 193 194 195
227 7 196 197 198
228 7 199 200 201
229 7 206 207 208
230 8 218 219 220
231 8 218 219 221
232 7 224 225 226
233 7 227 228 229

Dihedrals

1 1 4 6 8 11
2 1 6 8 11 12
3 1 8 11 12 15
4 1 11 12 15 18
5 1 12 15 18 20
6 1 15 18 20 24
7 1 18 20 24 26
8 1 20 24 26 28
9 1 111 113 114 116
10 1 113 114 116 119
11 1 137 139 141 143
12 1 139 141 143 145
13 1 141 143 145 147
14 1 143 145 147 149
15 1 159 161 164 167
16 1 199 202 204 206
17 1 202 204 206 209
18 1 204 206 209 211
19 1 206 209 211 213
20 1 209 211 213 215
21 1 211 213 215 217
22 1 213 215 217 218
23 1 215 217 218 222
24 1 217 218 222 224
25 1 218 222 224 227
26 1 222 224 227 230
27 1 224 227 230 231
28 1 227 230 231 233

Impropers

1 1 20 22 23 21
2 1 38 40 41 39
3 1 56 58 59 57
4 1 72 74 75 73
5 1 79 81 82 80
6 1 99 101 102 100
7 1 105 107 108 106
8 1 129 131 132 130
9 2 130 131 133 132
10 1 149 151 152 150
11 1 167 169 170 168
12 1 185 187 188 186
13 1 218 220 221 219

