comment

236 atoms
248 bonds
233 angles
28 dihedrals
13 impropers

17 atom types
17 bond types
10 angle types
1 dihedral types
2 improper types

-40.5 40.5 xlo xhi
-40.5 40.5 ylo yhi
-190.0 190.0 zlo zhi

Masses

1 72.0
2 72.0
3 72.0
4 72.0
5 72.0
6 72.0
7 72.0
8 72.0
9 72.0
10 45.0
11 72.0
12 72.0
13 72.0
14 45.0
15 45.0
16 72.0
17 45.0

PairIJ Coeffs

1 1 1.19503 4.699999999999999
1 2 1.3384336 4.699999999999999
1 3 1.3384336 4.699999999999999
1 4 0.956024 4.699999999999999
1 5 0.478012 4.699999999999999
1 6 0.5497137999999999 4.699999999999999
1 7 0.836521 4.699999999999999
1 8 0.478012 4.699999999999999
1 9 1.19503 4.699999999999999
1 10 0.7409186 4.699999999999999
1 11 1.3384336 4.699999999999999
1 12 1.19503 4.699999999999999
1 13 0.7409186 4.699999999999999
1 14 0.6453162 4.699999999999999
1 15 1.19503 4.699999999999999
1 16 1.19503 4.699999999999999
1 17 0.956024 4.699999999999999
2 2 1.3384336 4.699999999999999
2 3 1.3384336 4.699999999999999
2 4 1.19503 4.699999999999999
2 5 0.5497137999999999 4.699999999999999
2 6 0.6453162 4.699999999999999
2 7 0.836521 4.699999999999999
2 8 0.478012 4.699999999999999
2 9 1.19503 4.699999999999999
2 10 0.7409186 4.699999999999999
2 11 1.3384336 4.699999999999999
2 12 1.19503 4.699999999999999
2 13 0.7409186 4.699999999999999
2 14 0.6453162 4.699999999999999
2 15 1.3384336 4.699999999999999
2 16 1.3384336 4.699999999999999
2 17 1.19503 4.699999999999999
3 3 1.19503 4.699999999999999
3 4 1.19503 4.699999999999999
3 5 0.478012 4.699999999999999
3 6 0.5497137999999999 4.699999999999999
3 7 0.836521 4.699999999999999
3 8 0.478012 4.699999999999999
3 9 0.956024 4.699999999999999
3 10 0.7409186 4.699999999999999
3 11 1.3384336 4.699999999999999
3 12 1.19503 4.699999999999999
3 13 0.7409186 4.699999999999999
3 14 0.6453162 4.699999999999999
3 15 1.19503 4.699999999999999
3 16 1.19503 4.699999999999999
3 17 1.19503 4.699999999999999
4 4 0.956024 4.699999999999999
4 5 0.6453162 4.699999999999999
4 6 0.6453162 4.699999999999999
4 7 0.836521 4.699999999999999
4 8 0.6453162 4.699999999999999
4 9 1.075527 4.699999999999999
4 10 0.836521 4.699999999999999
4 11 0.956024 4.699999999999999
4 12 1.075527 4.699999999999999
4 13 0.836521 4.699999999999999
4 14 0.7409186 4.699999999999999
4 15 1.075527 4.699999999999999
4 16 1.075527 4.699999999999999
4 17 0.956024 4.699999999999999
5 5 0.836521 4.699999999999999
5 6 0.836521 4.699999999999999
5 7 0.7409186 4.699999999999999
5 8 0.836521 4.699999999999999
5 9 0.6453162 4.699999999999999
5 10 0.7409186 4.699999999999999
5 11 0.5497137999999999 4.699999999999999
5 12 0.6453162 4.699999999999999
5 13 0.7409186 4.699999999999999
5 14 0.7409186 4.699999999999999
5 15 0.7409186 4.699999999999999
5 16 0.7409186 4.699999999999999
5 17 0.6453162 4.699999999999999
6 6 0.836521 4.699999999999999
6 7 0.836521 4.699999999999999
6 8 0.836521 4.699999999999999
6 9 0.6453162 4.699999999999999
6 10 0.836521 4.699999999999999
6 11 0.6453162 4.699999999999999
6 12 0.6453162 4.699999999999999
6 13 0.836521 4.699999999999999
6 14 0.836521 4.699999999999999
6 15 0.836521 4.699999999999999
6 16 0.836521 4.699999999999999
6 17 0.6453162 4.699999999999999
7 7 0.836521 4.699999999999999
7 8 0.6453162 4.699999999999999
7 9 0.836521 4.699999999999999
7 10 0.836521 4.699999999999999
7 11 0.836521 4.699999999999999
7 12 0.836521 4.699999999999999
7 13 0.836521 4.699999999999999
7 14 0.836521 4.699999999999999
7 15 0.956024 4.699999999999999
7 16 0.956024 4.699999999999999
7 17 0.836521 4.699999999999999
8 8 0.836521 4.699999999999999
8 9 0.6453162 4.699999999999999
8 10 0.7409186 4.699999999999999
8 11 0.478012 4.699999999999999
8 12 0.6453162 4.699999999999999
8 13 0.7409186 4.699999999999999
8 14 0.7409186 4.699999999999999
8 15 0.6453162 4.699999999999999
8 16 0.6453162 4.699999999999999
8 17 0.6453162 4.699999999999999
9 9 0.956024 4.699999999999999
9 10 0.836521 4.699999999999999
9 11 0.956024 4.699999999999999
9 12 1.075527 4.699999999999999
9 13 0.836521 4.699999999999999
9 14 0.7409186 4.699999999999999
9 15 1.075527 4.699999999999999
9 16 1.075527 4.699999999999999
9 17 1.075527 4.699999999999999
10 10 0.62739075 4.3
10 11 0.7409186 4.699999999999999
10 12 0.836521 4.699999999999999
10 13 0.836521 4.699999999999999
10 14 0.62739075 4.3
10 15 0.62739075 4.3
10 16 0.836521 4.699999999999999
10 17 0.62739075 4.3
11 11 1.19503 4.699999999999999
11 12 0.956024 4.699999999999999
11 13 0.7409186 4.699999999999999
11 14 0.6453162 4.699999999999999
11 15 1.075527 4.699999999999999
11 16 1.075527 4.699999999999999
11 17 0.956024 4.699999999999999
12 12 1.075527 4.699999999999999
12 13 0.836521 4.699999999999999
12 14 0.7409186 4.699999999999999
12 15 1.075527 4.699999999999999
12 16 1.075527 4.699999999999999
12 17 1.075527 4.699999999999999
13 13 0.836521 4.699999999999999
13 14 0.836521 4.699999999999999
13 15 0.836521 4.699999999999999
13 16 0.836521 4.699999999999999
13 17 0.836521 4.699999999999999
14 14 0.62739075 4.3
14 15 0.62739075 4.3
14 16 0.836521 4.699999999999999
14 17 0.5556889500000001 4.3
15 15 0.80664525 4.3
15 16 1.075527 4.699999999999999
15 17 0.80664525 4.3
16 16 1.075527 4.699999999999999
16 17 1.075527 4.699999999999999
17 17 0.7170179999999999 4.3

Bond Coeffs

1 1.4937875 3.5
2 8.962725 3.2
3 5.97515 4.0
4 5.97515 3.3000000000000003
5 5.97515 2.8000000000000003
6 8.962725 3.1
7 8.962725 3.0
8 5.97515 3.2
9 8.962725 3.3000000000000003
10 5.97515 3.4000000000000004
11 5.97515 3.0
12 2.987575 4.0
13 11.9503 3.3000000000000003
14 11.9503 3.1
15 11.9503 2.6500000000000004
16 11.9503 2.7
17 11.9503 2.6

Angle Coeffs

1 2.39006 127
2 83.6521 96
3 2.39006 100
4 2.39006 130
5 11.9503 98
6 2.987575 100
7 2.987575 180
8 5.97515 150
9 5.97515 210
10 5.97515 90

Dihedral Coeffs

1 95.6024 1 -120 0

Improper Coeffs

1 5.97515 0
2 23.9006 0

Atoms

1 1 1 1.0000 1.2549999 -0.027 -48.818
2 1 2 0.0000 0.119223 0.0367378 -51.0676
3 1 3 -1.0000 -1.23113 -0.74690104 -53.177
4 1 4 0.0000 1.87123 2.1628199 -54.2873
5 1 5 0.0000 2.60257 0.558716 -55.977303
6 1 4 0.0000 1.63974 5.41115 -54.826103
7 1 3 -1.0000 -1.7733 6.07822 -56.0556
8 1 4 0.0000 4.49971 6.0275197 -56.5126
9 1 6 0.0000 7.18227 4.18886 -56.0552
10 1 1 1.0000 7.78136 1.54458 -56.136497
11 1 4 0.0000 3.9182 4.89147 -59.4377
12 1 7 0.0000 1.49939 7.0932 -60.5486
13 1 6 0.0000 -1.86688 6.52556 -61.0692
14 1 1 1.0000 -4.42977 6.18098 -60.2103
15 1 7 0.0000 3.4759102 9.7541895 -59.9701
16 1 6 0.0000 2.41261 11.0692005 -57.4336
17 1 1 1.0000 0.324665 10.221 -55.567497
18 1 7 0.0000 5.9750996 9.2542 -61.9484
19 1 8 0.0000 8.38683 7.9895 -60.7048
20 1 9 0.0000 4.59323 9.838611 -64.6249
21 1 10 0.0000 5.5173597 9.91658 -67.7275
22 1 10 0.0000 5.23615 9.67954 -70.4499
23 1 10 0.0000 7.52011 9.09356 -69.1351
24 1 9 0.0000 3.5535202 12.8039 -63.963898
25 1 5 0.0000 1.56564 14.4681 -64.337204
26 1 9 0.0000 6.43836 14.1343 -63.1506
27 1 11 0.0000 4.98987 17.2943 -65.2422
28 1 9 0.0000 7.8835797 13.5713005 -65.8569
29 1 6 0.0000 9.72437 11.296901 -65.4467
30 1 1 1.0000 11.4155 8.84126 -65.181595
31 1 12 0.0000 6.47206 14.1364 -68.9593
32 1 13 0.0000 8.75863 13.9896 -71.1169
33 1 7 0.0000 4.14683 14.646501 -69.2675
34 1 12 0.0000 1.01763 12.5805 -68.4551
35 1 11 0.0000 -0.89231 15.9798 -68.615295
36 1 12 0.0000 -0.112972 12.117 -71.8439
37 1 13 0.0000 -1.20603 15.1615 -71.7699
38 1 2 0.0000 -0.741421 8.08261 -71.482
39 1 14 0.0000 2.10285 7.23149 -72.3983
40 1 15 0.0000 4.0748796 5.4886003 -72.597496
41 1 15 0.0000 4.14425 7.58486 -74.087204
42 1 2 0.0000 -4.31151 7.4067903 -71.559204
43 1 16 0.0000 -5.32268 8.208879 -73.9453
44 1 2 0.0000 -5.0422 7.2676 -68.009
45 1 5 0.0000 -3.33603 5.47678 -67.507
46 1 2 0.0000 -7.52945 6.06085 -65.4068
47 1 3 -1.0000 -6.17455 9.46229 -63.2834
48 1 12 0.0000 -11.399699 3.96979 -64.5782
49 1 6 0.0000 -12.021199 2.49375 -61.5107
50 1 1 1.0000 -11.5217 1.6751599 -58.7501
51 1 12 0.0000 -12.6647 5.44347 -67.6091
52 1 2 0.0000 -9.97635 7.78177 -67.3088
53 1 2 0.0000 -10.033501 10.9754 -65.6697
54 1 6 0.0000 -10.9511 9.37708 -62.782303
55 1 1 1.0000 -9.73988 7.2796 -61.1758
56 1 2 0.0000 -9.39643 12.280901 -69.8941
57 1 14 0.0000 -9.58016 9.6190605 -71.613304
58 1 15 0.0000 -10.3144 6.94159 -72.634
59 1 15 0.0000 -12.1141 8.81667 -71.9163
60 1 2 0.0000 -5.53916 12.554501 -71.6245
61 1 6 0.0000 -4.26415 11.9206 -68.5551
62 1 1 1.0000 -3.1024199 11.398701 -66.1274
63 1 2 0.0000 -2.9365 12.2673 -76.108696
64 1 16 0.0000 -3.0950298 14.769899 -76.5392
65 1 2 0.0000 -0.42540598 10.0697 -76.6829
66 1 11 0.0000 0.39033902 7.8140697 -77.1709
67 1 6 0.0000 1.4991801 6.26913 -79.2298
68 1 2 0.0000 -1.23929 5.08292 -75.556305
69 1 2 0.0000 -3.4850903 4.72891 -77.146
70 1 2 0.0000 -2.15468 2.91425 -72.7167
71 1 8 0.0000 -0.0813313 2.6466398 -70.2186
72 1 12 0.0000 -5.7467504 2.51809 -74.289795
73 1 14 0.0000 -7.6053 3.4861002 -71.9504
74 1 15 0.0000 -9.55933 3.09306 -70.1751
75 1 15 0.0000 -7.2068796 2.97564 -69.490295
76 1 12 0.0000 -7.45035 -0.750193 -73.8839
77 1 2 0.0000 -5.46788 -2.20668 -71.385895
78 1 8 0.0000 -4.0213003 -0.762026 -68.5273
79 1 12 0.0000 -6.2408 -5.50878 -70.2954
80 1 10 0.0000 -4.86443 -5.69061 -67.2154
81 1 10 0.0000 -2.56289 -6.0310297 -65.4375
82 1 10 0.0000 -5.0048103 -7.1157002 -64.987305
83 1 12 0.0000 -5.6674 -8.11175 -72.8423
84 1 2 0.0000 -5.61458 -6.73055 -76.0408
85 1 7 0.0000 -3.93494 -4.32157 -75.4239
86 1 1 1.0000 -2.8505502 -1.4403499 -75.6236
87 1 2 0.0000 -3.6343398 -7.52219 -79.074005
88 1 6 0.0000 -1.02441 -9.28056 -79.862
89 1 1 1.0000 -0.05796 -8.20704 -82.2621
90 1 12 0.0000 -2.2937899 -4.56874 -79.8592
91 1 16 0.0000 -0.097324 -3.5942101 -78.9367
92 1 12 0.0000 -5.13908 -3.28872 -82.2787
93 1 2 0.0000 -6.11232 -0.88862 -79.7863
94 1 11 0.0000 -8.73404 -3.88962 -78.312996
95 1 11 0.0000 -7.90847 1.3691101 -79.6868
96 1 7 0.0000 -10.0203 3.4762402 -76.910904
97 1 6 0.0000 -11.7188 1.91845 -75.0525
98 1 12 0.0000 -8.17896 6.19793 -77.506
99 1 2 0.0000 -7.60387 5.8813295 -80.9245
100 1 10 0.0000 -7.2625704 7.92767 -83.20039
101 1 10 0.0000 -6.02705 8.16814 -85.4218
102 1 10 0.0000 -7.00263 10.564899 -84.23119
103 1 2 0.0000 -4.64495 4.19377 -82.2834
104 1 16 0.0000 -5.4358797 2.17237 -84.101295
105 1 2 0.0000 -2.02888 5.8990903 -82.88629
106 1 14 0.0000 -2.97547 8.20727 -80.8548
107 1 14 0.0000 -4.66271 9.66344 -79.2969
108 1 15 0.0000 -3.03682 10.6946 -81.127594
109 1 2 0.0000 -0.410631 5.0696096 -86.267006
110 1 16 0.0000 -1.89609 6.12999 -88.1298
111 1 4 0.0000 1.90362 2.57263 -85.7544
112 1 3 -1.0000 2.37147 1.7034199 -88.6788
113 1 7 0.0000 2.31745 2.00116 -82.6996
114 1 12 0.0000 -0.34819 0.63255197 -82.1353
115 1 2 0.0000 -1.34003 1.13956 -79.6522
116 1 12 0.0000 -0.233408 -2.28758 -83.9427
117 1 6 0.0000 -2.45352 -1.18459 -86.374504
118 1 1 1.0000 -1.5538 -0.595387 -89.0612
119 1 9 0.0000 2.55624 -3.1860101 -83.0533
120 1 2 0.0000 3.94328 -3.18358 -86.1975
121 1 2 0.0000 5.1167397 -4.6915503 -81.31329
122 1 6 0.0000 8.46892 -4.5057 -80.9939
123 1 1 1.0000 10.6675005 -5.33589 -78.733604
124 1 2 0.0000 3.76385 -7.2926 -79.5431
125 1 2 0.0000 2.3259 -7.62002 -76.8596
126 1 8 0.0000 2.65841 -10.7336 -76.430504
127 1 2 0.0000 -0.35844898 -7.5988398 -74.0879
128 1 16 0.0000 -1.5125599 -9.72798 -74.973206
129 1 2 0.0000 -1.04881 -8.05289 -70.156006
130 1 14 0.0000 -1.2826 -4.89011 -70.2762
131 1 17 0.0000 -0.154524 -2.57887 -71.445496
132 1 10 0.0000 0.279982 -4.8232203 -72.761696
133 1 10 0.0000 1.41549 -2.69212 -73.6111
134 1 2 0.0000 0.226899 -9.80901 -67.586296
135 1 6 0.0000 2.84939 -11.7208 -67.5059
136 1 1 1.0000 4.3054 -11.7767 -65.1527
137 1 4 0.0000 2.30042 -6.98509 -66.158
138 1 3 -1.0000 5.4891005 -7.776 -63.126404
139 1 4 0.0000 5.05347 -7.70973 -67.7453
140 1 3 -1.0000 5.9834805 -7.90545 -63.447998
141 1 4 0.0000 4.54582 -6.20648 -70.6461
142 1 16 0.0000 4.25242 -7.9486 -72.4323
143 1 12 0.0000 4.78686 -3.14311 -69.5249
144 1 8 0.0000 4.00101 -0.232855 -69.5029
145 1 9 0.0000 7.99773 -3.39012 -68.794495
146 1 13 0.0000 9.75537 -5.8388 -66.5635
147 1 9 0.0000 8.98771 -3.66353 -71.6709
148 1 3 -1.0000 11.929899 -4.18566 -74.3461
149 1 9 0.0000 7.67322 -0.57759297 -72.6217
150 1 14 0.0000 4.87144 0.859759 -74.652
151 1 14 0.0000 3.7401102 2.92084 -76.248
152 1 15 0.0000 2.61764 1.3765199 -74.4586
153 1 12 0.0000 9.56902 1.50186 -71.622604
154 1 8 0.0000 7.2808 3.42543 -69.7833
155 1 12 0.0000 12.5148 0.94613004 -72.4857
156 1 3 -1.0000 15.8957 0.15905601 -70.826004
157 1 2 0.0000 13.1818 3.8796802 -74.0973
158 1 2 0.0000 15.6423 5.26425 -73.7711
159 1 7 0.0000 10.2638 3.44435 -75.7162
160 1 6 0.0000 8.381861 5.06195 -74.3616
161 1 12 0.0000 11.515301 3.0224001 -78.4396
162 1 6 0.0000 13.2334 5.9003696 -78.1605
163 1 1 1.0000 11.957399 8.6604395 -78.4578
164 1 12 0.0000 11.4883 -0.45742399 -78.1375
165 1 6 0.0000 14.667 -0.17111899 -77.8944
166 1 1 1.0000 15.692 -1.4456999 -75.5194
167 1 12 0.0000 8.32252 -0.522901 -77.816605
168 1 14 0.0000 7.2811103 -2.95761 -76.3107
169 1 14 0.0000 4.97837 -3.8597398 -75.661995
170 1 15 0.0000 6.96154 -5.6421204 -75.6418
171 1 2 0.0000 6.33699 0.35441202 -79.8944
172 1 8 0.0000 3.5736299 -0.633114 -79.317696
173 1 7 0.0000 6.935 0.0890089 -83.48601
174 1 6 0.0000 8.66317 -1.7170601 -85.077896
175 1 12 0.0000 8.7875 2.9572601 -83.0416
176 1 2 0.0000 6.15872 3.7683601 -79.9012
177 1 16 0.0000 6.66247 6.0691795 -78.6942
178 1 2 0.0000 4.73481 6.1160603 -83.3844
179 1 6 0.0000 6.1896505 5.35054 -85.799194
180 1 1 1.0000 6.6834 2.9685102 -87.6471
181 1 2 0.0000 1.9956 9.07627 -83.5989
182 1 13 0.0000 2.21737 8.824719 -87.234604
183 1 2 0.0000 3.0261202 10.694799 -81.2241
184 1 8 0.0000 1.60657 13.397599 -81.1076
185 1 2 0.0000 4.59805 10.7931 -78.0345
186 1 10 0.0000 3.35918 13.4907 -76.9038
187 1 10 0.0000 4.07246 15.7613 -75.377
188 1 10 0.0000 1.68562 15.258301 -75.7282
189 1 11 0.0000 7.56958 10.6002 -76.110504
190 1 2 0.0000 9.30065 9.71235 -73.7416
191 1 2 0.0000 11.3955 7.90585 -71.4188
192 1 8 0.0000 12.7346 10.141701 -69.8086
193 1 2 0.0000 11.7937 5.08574 -68.519104
194 1 6 0.0000 14.609099 4.88783 -69.127205
195 1 1 1.0000 17.0522 4.33535 -68.6634
196 1 2 0.0000 15.7411 1.3091301 -66.1382
197 1 6 0.0000 18.107899 2.47383 -63.8051
198 1 1 1.0000 17.5926 3.9348998 -61.3087
199 1 4 0.0000 14.586 -1.06266 -63.4562
200 1 6 0.0000 11.9755 -3.9923902 -62.3079
201 1 1 1.0000 9.24403 -5.2892704 -61.7061
202 1 4 0.0000 13.1071 0.765929 -61.6328
203 1 16 0.0000 12.225699 0.192509 -59.3671
204 1 4 0.0000 12.2191 3.1732402 -63.8574
205 1 3 -1.0000 15.0331 5.9504004 -64.583405
206 1 4 0.0000 10.5582 1.13073 -65.7824
207 1 7 0.0000 12.1029 -1.2403 -67.7764
208 1 1 1.0000 13.120199 -3.6424198 -69.7796
209 1 7 0.0000 8.973249 -0.133845 -63.3142
210 1 3 -1.0000 7.23218 -1.69074 -59.6722
211 1 7 0.0000 7.14019 2.5411701 -62.2765
212 1 3 -1.0000 6.0977 -0.392307 -59.9614
213 1 7 0.0000 5.7181797 2.74735 -65.3937
214 1 8 0.0000 7.0409 5.74143 -65.6241
215 1 7 0.0000 4.33217 -0.108012 -64.9785
216 1 8 0.0000 5.0939603 -2.872 -64.900696
217 1 13 0.0000 2.35393 0.815 -62.2481
218 1 7 0.0000 0.737378 2.9562302 -63.605198
219 1 14 0.0000 1.56927 5.6564097 -65.5824
220 1 14 0.0000 2.3164601 6.4953203 -67.9395
221 1 15 0.0000 0.702219 7.98131 -66.1441
222 1 7 0.0000 -0.670918 0.737997 -65.7009
223 1 8 0.0000 0.504278 -2.17505 -66.8029
224 1 7 0.0000 -1.7667601 -1.0039799 -63.039597
225 1 6 0.0000 0.570377 -3.56228 -61.921402
226 1 1 1.0000 3.6522002 -4.2839103 -61.0656
227 1 9 0.0000 -3.12907 1.55504 -61.8153
228 1 6 0.0000 -2.83376 1.9623699 -58.4198
229 1 1 1.0000 -4.34519 1.69302 -56.0839
230 1 7 0.0000 -5.32031 2.10761 -64.1698
231 1 9 0.0000 -6.82104 -0.50997 -64.1575
232 1 16 0.0000 -8.43657 -1.31186 -66.2654
233 1 9 0.0000 -7.83165 -0.452855 -61.1268
234 1 2 0.0000 -7.02189 -2.09125 -58.5239
235 1 3 -1.0000 -7.63287 2.7670197 -60.542404
236 1 3 -1.0000 -8.02916 4.70012 -57.7191

Bonds

1 1 1 2
2 1 31 33
3 1 33 34
4 1 34 36
5 1 36 38
6 1 38 42
7 1 42 44
8 1 44 46
9 1 46 48
10 1 48 51
11 1 51 52
12 1 52 53
13 1 53 56
14 1 56 60
15 1 60 63
16 1 63 65
17 1 65 66
18 1 66 68
19 1 68 70
20 1 70 72
21 1 72 76
22 1 76 77
23 1 77 79
24 1 79 83
25 1 83 84
26 1 84 87
27 1 87 90
28 1 90 92
29 1 92 93
30 1 93 95
31 1 95 96
32 1 96 98
33 1 98 99
34 1 99 103
35 1 103 105
36 1 105 109
37 1 121 124
38 1 124 125
39 1 125 127
40 1 127 129
41 1 129 134
42 1 153 155
43 1 155 157
44 1 171 173
45 1 173 175
46 1 175 176
47 1 176 178
48 1 178 181
49 1 181 183
50 1 183 185
51 1 185 189
52 1 189 190
53 1 190 191
54 1 191 193
55 1 193 196
56 2 2 3
57 3 6 7
58 4 8 9
59 5 9 10
60 4 12 13
61 5 13 14
62 4 15 16
63 5 16 17
64 6 20 21
65 3 26 27
66 4 28 29
67 5 29 30
68 6 31 32
69 3 34 35
70 6 36 37
71 2 38 39
72 3 46 47
73 4 48 49
74 5 49 50
75 4 53 54
76 5 54 55
77 2 56 57
78 4 60 61
79 5 61 62
80 7 66 67
81 8 68 69
82 9 70 71
83 2 72 73
84 9 77 78
85 6 79 80
86 4 84 85
87 10 85 86
88 4 87 88
89 5 88 89
90 3 93 94
91 7 96 97
92 6 99 100
93 8 105 106
94 2 111 112
95 8 114 115
96 4 116 117
97 5 117 118
98 8 119 120
99 4 121 122
100 5 122 123
101 11 129 130
102 4 134 135
103 5 135 136
104 3 137 138
105 3 139 140
106 9 143 144
107 12 145 146
108 3 147 148
109 8 149 150
110 9 153 154
111 3 155 156
112 8 157 158
113 7 159 160
114 4 161 162
115 5 162 163
116 4 164 165
117 5 165 166
118 8 167 168
119 7 173 174
120 4 178 179
121 5 179 180
122 12 181 182
123 6 185 186
124 4 193 194
125 5 194 195
126 4 196 197
127 5 197 198
128 4 199 200
129 5 200 201
130 3 204 205
131 4 206 207
132 10 207 208
133 3 209 210
134 2 211 212
135 9 213 214
136 8 218 219
137 9 222 223
138 4 224 225
139 5 225 226
140 4 227 228
141 5 228 229
142 8 233 234
143 3 235 236
144 13 2 4
145 14 4 6
146 14 6 8
147 14 8 11
148 14 11 12
149 14 12 15
150 14 15 18
151 14 18 20
152 14 20 24
153 14 24 26
154 14 26 28
155 13 28 31
156 13 109 111
157 14 111 113
158 14 113 114
159 14 114 116
160 14 116 119
161 13 119 121
162 13 134 137
163 14 137 139
164 14 139 141
165 14 141 143
166 14 143 145
167 14 145 147
168 14 147 149
169 13 149 153
170 13 157 159
171 14 159 161
172 14 161 164
173 14 164 167
174 13 167 171
175 13 196 199
176 14 199 202
177 14 202 204
178 14 204 206
179 14 206 209
180 14 209 211
181 14 211 213
182 14 213 215
183 14 215 217
184 14 217 218
185 14 218 222
186 14 222 224
187 14 224 227
188 14 227 230
189 14 230 231
190 14 231 233
191 13 233 235
192 15 4 5
193 14 18 19
194 16 21 22
195 16 21 23
196 16 22 23
197 15 24 25
198 16 39 40
199 16 39 41
200 16 40 41
201 17 42 43
202 15 44 45
203 16 57 58
204 16 57 59
205 16 58 59
206 17 63 64
207 16 73 74
208 16 73 75
209 16 74 75
210 16 80 81
211 16 80 82
212 16 81 82
213 17 90 91
214 16 100 101
215 16 100 102
216 16 101 102
217 17 103 104
218 16 106 107
219 16 106 108
220 16 107 108
221 17 109 110
222 14 125 126
223 17 127 128
224 16 130 131
225 16 130 132
226 16 131 132
227 16 131 133
228 16 132 133
229 17 141 142
230 16 150 151
231 16 150 152
232 16 151 152
233 16 168 169
234 16 168 170
235 16 169 170
236 14 171 172
237 17 176 177
238 14 183 184
239 16 186 187
240 16 186 188
241 16 187 188
242 14 191 192
243 17 202 203
244 14 215 216
245 16 219 220
246 16 219 221
247 16 220 221
248 17 231 232

Angles

1 1 1 2 4
2 1 2 4 6
3 2 4 6 8
4 2 6 8 11
5 2 8 11 12
6 2 11 12 15
7 2 12 15 18
8 2 15 18 20
9 2 18 20 24
10 2 20 24 26
11 2 24 26 28
12 3 26 28 31
13 3 28 31 33
14 3 31 33 34
15 3 33 34 36
16 3 34 36 38
17 3 36 38 42
18 1 38 42 44
19 1 42 44 46
20 3 44 46 48
21 3 46 48 51
22 3 48 51 52
23 3 51 52 53
24 1 52 53 56
25 1 53 56 60
26 1 56 60 63
27 1 60 63 65
28 4 63 65 66
29 1 65 66 68
30 1 66 68 70
31 3 68 70 72
32 3 70 72 76
33 3 72 76 77
34 3 76 77 79
35 3 77 79 83
36 3 79 83 84
37 3 83 84 87
38 3 84 87 90
39 3 87 90 92
40 3 90 92 93
41 3 92 93 95
42 1 93 95 96
43 3 95 96 98
44 3 96 98 99
45 3 98 99 103
46 1 99 103 105
47 1 103 105 109
48 1 105 109 111
49 1 109 111 113
50 2 111 113 114
51 2 113 114 116
52 2 114 116 119
53 1 116 119 121
54 1 119 121 124
55 1 121 124 125
56 1 124 125 127
57 1 125 127 129
58 1 127 129 134
59 1 129 134 137
60 4 134 137 139
61 2 137 139 141
62 2 139 141 143
63 2 141 143 145
64 2 143 145 147
65 2 145 147 149
66 3 147 149 153
67 3 149 153 155
68 3 153 155 157
69 3 155 157 159
70 5 157 159 161
71 5 159 161 164
72 2 161 164 167
73 4 164 167 171
74 4 167 171 173
75 3 171 173 175
76 3 173 175 176
77 3 175 176 178
78 1 176 178 181
79 1 178 181 183
80 1 181 183 185
81 1 183 185 189
82 1 185 189 190
83 1 189 190 191
84 1 190 191 193
85 1 191 193 196
86 1 193 196 199
87 4 196 199 202
88 2 199 202 204
89 2 202 204 206
90 2 204 206 209
91 2 206 209 211
92 2 209 211 213
93 2 211 213 215
94 2 213 215 217
95 2 215 217 218
96 2 217 218 222
97 2 218 222 224
98 2 222 224 227
99 2 224 227 230
100 2 227 230 231
101 2 230 231 233
102 1 231 233 235
103 6 1 2 3
104 6 2 4 5
105 6 4 6 7
106 6 6 8 9
107 6 11 12 13
108 6 12 15 16
109 6 15 18 19
110 6 18 20 21
111 6 20 24 25
112 6 24 26 27
113 6 26 28 29
114 6 28 31 32
115 6 33 34 35
116 6 34 36 37
117 6 36 38 39
118 6 38 42 43
119 6 42 44 45
120 6 44 46 47
121 6 46 48 49
122 6 52 53 54
123 6 53 56 57
124 6 56 60 61
125 6 60 63 64
126 6 65 66 67
127 6 66 68 69
128 6 68 70 71
129 6 70 72 73
130 6 76 77 78
131 6 77 79 80
132 6 83 84 85
133 6 84 87 88
134 6 87 90 91
135 6 92 93 94
136 6 95 96 97
137 6 98 99 100
138 6 99 103 104
139 6 103 105 106
140 6 105 109 110
141 6 109 111 112
142 6 113 114 115
143 6 114 116 117
144 6 116 119 120
145 6 119 121 122
146 6 124 125 126
147 6 125 127 128
148 6 127 129 130
149 6 129 134 135
150 6 134 137 138
151 6 137 139 140
152 6 139 141 142
153 6 141 143 144
154 6 143 145 146
155 6 145 147 148
156 6 147 149 150
157 6 149 153 154
158 6 153 155 156
159 6 155 157 158
160 6 157 159 160
161 6 159 161 162
162 6 161 164 165
163 6 164 167 168
164 6 167 171 172
165 6 171 173 174
166 6 175 176 177
167 6 176 178 179
168 6 178 181 182
169 6 181 183 184
170 6 183 185 186
171 6 190 191 192
172 6 191 193 194
173 6 193 196 197
174 6 196 199 200
175 6 199 202 203
176 6 202 204 205
177 6 204 206 207
178 6 206 209 210
179 6 209 211 212
180 6 211 213 214
181 6 213 215 216
182 6 217 218 219
183 6 218 222 223
184 6 222 224 225
185 6 224 227 228
186 6 230 231 232
187 6 231 233 234
188 6 233 235 236
189 7 8 9 10
190 7 12 13 14
191 7 15 16 17
192 8 20 21 22
193 8 20 21 23
194 7 28 29 30
195 8 38 39 40
196 8 38 39 41
197 7 48 49 50
198 7 53 54 55
199 8 56 57 58
200 8 56 57 59
201 7 60 61 62
202 8 72 73 74
203 8 72 73 75
204 8 79 80 81
205 8 79 80 82
206 7 84 85 86
207 7 87 88 89
208 8 99 100 101
209 8 99 100 102
210 8 105 106 107
211 8 105 106 108
212 7 116 117 118
213 7 121 122 123
214 9 129 130 131
215 10 129 130 132
216 7 134 135 136
217 8 149 150 151
218 8 149 150 152
219 7 161 162 163
220 7 164 165 166
221 8 167 168 169
222 8 167 168 170
223 7 178 179 180
224 8 185 186 187
225 8 185 186 188
226 7 193 194 195
227 7 196 197 198
228 7 199 200 201
229 7 206 207 208
230 8 218 219 220
231 8 218 219 221
232 7 224 225 226
233 7 227 228 229

Dihedrals

1 1 4 6 8 11
2 1 6 8 11 12
3 1 8 11 12 15
4 1 11 12 15 18
5 1 12 15 18 20
6 1 15 18 20 24
7 1 18 20 24 26
8 1 20 24 26 28
9 1 111 113 114 116
10 1 113 114 116 119
11 1 137 139 141 143
12 1 139 141 143 145
13 1 141 143 145 147
14 1 143 145 147 149
15 1 159 161 164 167
16 1 199 202 204 206
17 1 202 204 206 209
18 1 204 206 209 211
19 1 206 209 211 213
20 1 209 211 213 215
21 1 211 213 215 217
22 1 213 215 217 218
23 1 215 217 218 222
24 1 217 218 222 224
25 1 218 222 224 227
26 1 222 224 227 230
27 1 224 227 230 231
28 1 227 230 231 233

Impropers

1 1 20 22 23 21
2 1 38 40 41 39
3 1 56 58 59 57
4 1 72 74 75 73
5 1 79 81 82 80
6 1 99 101 102 100
7 1 105 107 108 106
8 1 129 131 132 130
9 2 130 131 133 132
10 1 149 151 152 150
11 1 167 169 170 168
12 1 185 187 188 186
13 1 218 220 221 219

