comment

236 atoms
248 bonds
233 angles
28 dihedrals
13 impropers

17 atom types
17 bond types
10 angle types
1 dihedral types
2 improper types

-40.5 40.5 xlo xhi
-40.5 40.5 ylo yhi
-190.0 190.0 zlo zhi

Masses

1 72.0
2 72.0
3 72.0
4 72.0
5 72.0
6 72.0
7 72.0
8 72.0
9 72.0
10 45.0
11 72.0
12 72.0
13 72.0
14 45.0
15 45.0
16 72.0
17 45.0

PairIJ Coeffs

1 1 1.19503 4.699999999999999
1 2 1.3384336 4.699999999999999
1 3 1.3384336 4.699999999999999
1 4 0.956024 4.699999999999999
1 5 0.478012 4.699999999999999
1 6 0.5497137999999999 4.699999999999999
1 7 0.836521 4.699999999999999
1 8 0.478012 4.699999999999999
1 9 1.19503 4.699999999999999
1 10 0.7409186 4.699999999999999
1 11 1.3384336 4.699999999999999
1 12 1.19503 4.699999999999999
1 13 0.7409186 4.699999999999999
1 14 0.6453162 4.699999999999999
1 15 1.19503 4.699999999999999
1 16 1.19503 4.699999999999999
1 17 0.956024 4.699999999999999
2 2 1.3384336 4.699999999999999
2 3 1.3384336 4.699999999999999
2 4 1.19503 4.699999999999999
2 5 0.5497137999999999 4.699999999999999
2 6 0.6453162 4.699999999999999
2 7 0.836521 4.699999999999999
2 8 0.478012 4.699999999999999
2 9 1.19503 4.699999999999999
2 10 0.7409186 4.699999999999999
2 11 1.3384336 4.699999999999999
2 12 1.19503 4.699999999999999
2 13 0.7409186 4.699999999999999
2 14 0.6453162 4.699999999999999
2 15 1.3384336 4.699999999999999
2 16 1.3384336 4.699999999999999
2 17 1.19503 4.699999999999999
3 3 1.19503 4.699999999999999
3 4 1.19503 4.699999999999999
3 5 0.478012 4.699999999999999
3 6 0.5497137999999999 4.699999999999999
3 7 0.836521 4.699999999999999
3 8 0.478012 4.699999999999999
3 9 0.956024 4.699999999999999
3 10 0.7409186 4.699999999999999
3 11 1.3384336 4.699999999999999
3 12 1.19503 4.699999999999999
3 13 0.7409186 4.699999999999999
3 14 0.6453162 4.699999999999999
3 15 1.19503 4.699999999999999
3 16 1.19503 4.699999999999999
3 17 1.19503 4.699999999999999
4 4 0.956024 4.699999999999999
4 5 0.6453162 4.699999999999999
4 6 0.6453162 4.699999999999999
4 7 0.836521 4.699999999999999
4 8 0.6453162 4.699999999999999
4 9 1.075527 4.699999999999999
4 10 0.836521 4.699999999999999
4 11 0.956024 4.699999999999999
4 12 1.075527 4.699999999999999
4 13 0.836521 4.699999999999999
4 14 0.7409186 4.699999999999999
4 15 1.075527 4.699999999999999
4 16 1.075527 4.699999999999999
4 17 0.956024 4.699999999999999
5 5 0.836521 4.699999999999999
5 6 0.836521 4.699999999999999
5 7 0.7409186 4.699999999999999
5 8 0.836521 4.699999999999999
5 9 0.6453162 4.699999999999999
5 10 0.7409186 4.699999999999999
5 11 0.5497137999999999 4.699999999999999
5 12 0.6453162 4.699999999999999
5 13 0.7409186 4.699999999999999
5 14 0.7409186 4.699999999999999
5 15 0.7409186 4.699999999999999
5 16 0.7409186 4.699999999999999
5 17 0.6453162 4.699999999999999
6 6 0.836521 4.699999999999999
6 7 0.836521 4.699999999999999
6 8 0.836521 4.699999999999999
6 9 0.6453162 4.699999999999999
6 10 0.836521 4.699999999999999
6 11 0.6453162 4.699999999999999
6 12 0.6453162 4.699999999999999
6 13 0.836521 4.699999999999999
6 14 0.836521 4.699999999999999
6 15 0.836521 4.699999999999999
6 16 0.836521 4.699999999999999
6 17 0.6453162 4.699999999999999
7 7 0.836521 4.699999999999999
7 8 0.6453162 4.699999999999999
7 9 0.836521 4.699999999999999
7 10 0.836521 4.699999999999999
7 11 0.836521 4.699999999999999
7 12 0.836521 4.699999999999999
7 13 0.836521 4.699999999999999
7 14 0.836521 4.699999999999999
7 15 0.956024 4.699999999999999
7 16 0.956024 4.699999999999999
7 17 0.836521 4.699999999999999
8 8 0.836521 4.699999999999999
8 9 0.6453162 4.699999999999999
8 10 0.7409186 4.699999999999999
8 11 0.478012 4.699999999999999
8 12 0.6453162 4.699999999999999
8 13 0.7409186 4.699999999999999
8 14 0.7409186 4.699999999999999
8 15 0.6453162 4.699999999999999
8 16 0.6453162 4.699999999999999
8 17 0.6453162 4.699999999999999
9 9 0.956024 4.699999999999999
9 10 0.836521 4.699999999999999
9 11 0.956024 4.699999999999999
9 12 1.075527 4.699999999999999
9 13 0.836521 4.699999999999999
9 14 0.7409186 4.699999999999999
9 15 1.075527 4.699999999999999
9 16 1.075527 4.699999999999999
9 17 1.075527 4.699999999999999
10 10 0.62739075 4.3
10 11 0.7409186 4.699999999999999
10 12 0.836521 4.699999999999999
10 13 0.836521 4.699999999999999
10 14 0.62739075 4.3
10 15 0.62739075 4.3
10 16 0.836521 4.699999999999999
10 17 0.62739075 4.3
11 11 1.19503 4.699999999999999
11 12 0.956024 4.699999999999999
11 13 0.7409186 4.699999999999999
11 14 0.6453162 4.699999999999999
11 15 1.075527 4.699999999999999
11 16 1.075527 4.699999999999999
11 17 0.956024 4.699999999999999
12 12 1.075527 4.699999999999999
12 13 0.836521 4.699999999999999
12 14 0.7409186 4.699999999999999
12 15 1.075527 4.699999999999999
12 16 1.075527 4.699999999999999
12 17 1.075527 4.699999999999999
13 13 0.836521 4.699999999999999
13 14 0.836521 4.699999999999999
13 15 0.836521 4.699999999999999
13 16 0.836521 4.699999999999999
13 17 0.836521 4.699999999999999
14 14 0.62739075 4.3
14 15 0.62739075 4.3
14 16 0.836521 4.699999999999999
14 17 0.5556889500000001 4.3
15 15 0.80664525 4.3
15 16 1.075527 4.699999999999999
15 17 0.80664525 4.3
16 16 1.075527 4.699999999999999
16 17 1.075527 4.699999999999999
17 17 0.7170179999999999 4.3

Bond Coeffs

1 1.4937875 3.5
2 8.962725 3.2
3 5.97515 4.0
4 5.97515 3.3000000000000003
5 5.97515 2.8000000000000003
6 8.962725 3.1
7 8.962725 3.0
8 5.97515 3.2
9 8.962725 3.3000000000000003
10 5.97515 3.4000000000000004
11 5.97515 3.0
12 2.987575 4.0
13 11.9503 3.3000000000000003
14 11.9503 3.1
15 11.9503 2.6500000000000004
16 11.9503 2.7
17 11.9503 2.6

Angle Coeffs

1 2.39006 127
2 83.6521 96
3 2.39006 100
4 2.39006 130
5 11.9503 98
6 2.987575 100
7 2.987575 180
8 5.97515 150
9 5.97515 210
10 5.97515 90

Dihedral Coeffs

1 95.6024 1 -120 0

Improper Coeffs

1 5.97515 0
2 23.9006 0

Atoms

1 1 1 1.0000 1.2549999 -0.027 -48.818
2 1 2 0.0000 0.14848499 -0.00844178 -51.0976
3 1 3 -1.0000 -1.18856 -0.71043 -53.181602
4 1 4 0.0000 2.15151 1.9860301 -54.2715
5 1 5 0.0000 3.19381 0.139365 -55.592197
6 1 4 0.0000 1.78343 5.3376102 -54.7443
7 1 3 -1.0000 -1.79626 6.2028904 -55.068302
8 1 4 0.0000 4.55195 6.06 -55.8251
9 1 6 0.0000 7.0882897 4.41903 -54.8358
10 1 1 1.0000 7.7485104 2.63905 -56.8075
11 1 4 0.0000 4.17064 4.62952 -58.8558
12 1 7 0.0000 1.8296499 6.9560404 -59.9766
13 1 6 0.0000 -1.55443 6.0286703 -60.8145
14 1 1 1.0000 -3.94781 6.01547 -59.1571
15 1 7 0.0000 3.5822 9.75904 -59.388397
16 1 6 0.0000 1.70314 11.0128 -56.9079
17 1 1 1.0000 0.227456 10.232901 -53.970497
18 1 7 0.0000 6.16122 9.25064 -61.483997
19 1 8 0.0000 8.18912 7.21663 -60.6469
20 1 9 0.0000 4.6030197 9.73234 -64.4206
21 1 10 0.0000 5.2409797 9.143909 -67.5769
22 1 10 0.0000 4.5194 9.60256 -69.893196
23 1 10 0.0000 7.2800703 9.659861 -69.162994
24 1 9 0.0000 3.4416401 13.0392 -63.7566
25 1 5 0.0000 1.06892 14.035601 -63.243797
26 1 9 0.0000 6.14624 14.1103 -63.2
27 1 11 0.0000 4.69554 17.7223 -65.7968
28 1 9 0.0000 7.92834 13.314 -66.037796
29 1 6 0.0000 9.75519 10.910799 -64.866
30 1 1 1.0000 11.5187 8.78291 -65.2563
31 1 12 0.0000 7.13826 14.240399 -69.432205
32 1 13 0.0000 8.5975895 13.6359005 -71.9564
33 1 7 0.0000 4.17113 14.270801 -68.9214
34 1 12 0.0000 1.4159 12.4857 -68.1075
35 1 11 0.0000 -1.6437299 15.348701 -67.769
36 1 12 0.0000 0.044908203 12.3543 -71.3038
37 1 13 0.0000 -0.67067 15.377399 -71.318
38 1 2 0.0000 -0.698938 8.75243 -70.8103
39 1 14 0.0000 1.46808 7.2833104 -72.1058
40 1 15 0.0000 3.26926 5.57376 -72.048996
41 1 15 0.0000 3.66402 7.57711 -73.9231
42 1 2 0.0000 -3.9368799 7.2384205 -71.0044
43 1 16 0.0000 -4.71275 8.04682 -73.5399
44 1 2 0.0000 -4.3758197 6.1558504 -68.278595
45 1 5 0.0000 -3.0738401 4.2688 -67.091995
46 1 2 0.0000 -7.1743703 6.7468 -65.8422
47 1 3 -1.0000 -5.09744 9.046761 -62.8823
48 1 12 0.0000 -10.1117 4.14536 -64.6141
49 1 6 0.0000 -11.9165 2.8225899 -61.600998
50 1 1 1.0000 -11.7257 1.92541 -58.642403
51 1 12 0.0000 -12.409801 5.4514003 -66.6848
52 1 2 0.0000 -9.15045 8.27849 -66.7663
53 1 2 0.0000 -10.9833 11.100599 -65.9484
54 1 6 0.0000 -10.8849 9.30157 -62.5588
55 1 1 1.0000 -9.26918 7.4767203 -60.806698
56 1 2 0.0000 -9.94806 12.8717 -70.3523
57 1 14 0.0000 -10.608701 10.1641 -71.7632
58 1 15 0.0000 -9.54698 7.9741 -72.2591
59 1 15 0.0000 -12.2155 8.02323 -72.1259
60 1 2 0.0000 -5.50585 12.4005995 -71.3688
61 1 6 0.0000 -5.17303 11.3276005 -68.2849
62 1 1 1.0000 -3.10972 10.6411 -66.7167
63 1 2 0.0000 -2.47669 12.4119 -75.4896
64 1 16 0.0000 -3.6079903 14.7071 -76.360695
65 1 2 0.0000 -0.75025094 10.4473 -75.8121
66 1 11 0.0000 -0.072477 6.87955 -76.7171
67 1 6 0.0000 1.45296 6.19509 -79.433
68 1 2 0.0000 -1.2227299 4.49488 -75.2619
69 1 2 0.0000 -4.55284 4.07147 -76.4108
70 1 2 0.0000 -1.70806 2.7799 -72.402
71 1 8 0.0000 0.144016 2.32133 -69.792
72 1 12 0.0000 -5.85243 2.92681 -74.104
73 1 14 0.0000 -7.20206 3.95433 -71.1884
74 1 15 0.0000 -9.49922 4.43726 -70.5471
75 1 15 0.0000 -8.20418 2.8706698 -68.925
76 1 12 0.0000 -7.56635 -0.751315 -73.0196
77 1 2 0.0000 -6.13239 -2.04564 -70.7563
78 1 8 0.0000 -4.1652102 -0.603027 -68.8953
79 1 12 0.0000 -5.7925396 -5.39346 -70.207504
80 1 10 0.0000 -5.14645 -6.12108 -67.5409
81 1 10 0.0000 -3.92978 -4.60054 -65.3077
82 1 10 0.0000 -5.76682 -6.4896703 -65.1454
83 1 12 0.0000 -5.51628 -8.21092 -72.6062
84 1 2 0.0000 -4.46666 -6.5977197 -75.4893
85 1 7 0.0000 -3.97369 -3.9492 -75.5753
86 1 1 1.0000 -4.84142 -1.3935199 -76.946
87 1 2 0.0000 -2.7983499 -7.65341 -78.6837
88 1 6 0.0000 -1.09234 -9.46016 -80.458
89 1 1 1.0000 0.529074 -12.0357 -80.0038
90 1 12 0.0000 -1.58343 -4.63616 -79.9171
91 1 16 0.0000 0.225109 -3.7447598 -78.9159
92 1 12 0.0000 -4.68233 -2.42993 -81.8495
93 1 2 0.0000 -8.205501 -0.96046996 -80.5401
94 1 11 0.0000 -8.99707 -3.9939902 -77.9139
95 1 11 0.0000 -8.742889 1.36819 -77.8777
96 1 7 0.0000 -10.3546 3.52579 -76.0121
97 1 6 0.0000 -12.9954 3.60365 -74.4381
98 1 12 0.0000 -9.05126 6.78163 -77.1679
99 1 2 0.0000 -7.96148 5.2177 -80.29021
100 1 10 0.0000 -7.63126 7.2156 -82.5444
101 1 10 0.0000 -6.35493 7.375 -84.8427
102 1 10 0.0000 -6.6868596 9.74284 -83.362
103 1 2 0.0000 -4.67858 3.16313 -81.5604
104 1 16 0.0000 -5.49037 2.10962 -83.9077
105 1 2 0.0000 -2.64487 5.58607 -81.979996
106 1 14 0.0000 -3.24592 7.94848 -80.3368
107 1 14 0.0000 -4.96749 9.35826 -78.5456
108 1 15 0.0000 -3.31735 10.5931 -80.339096
109 1 2 0.0000 -1.41995 5.2912197 -85.347206
110 1 16 0.0000 -2.60128 6.28557 -87.445694
111 1 4 0.0000 1.20515 3.6036599 -85.248604
112 1 3 -1.0000 1.9941101 1.67004 -87.74921
113 1 7 0.0000 2.15907 2.6475902 -82.3693
114 1 12 0.0000 -0.236755 0.69615495 -81.63901
115 1 2 0.0000 -0.828616 1.00983 -78.4695
116 1 12 0.0000 0.0101064 -1.3959899 -84.0472
117 1 6 0.0000 -1.97437 -0.90782905 -86.5724
118 1 1 1.0000 -2.3092399 0.68146497 -88.41409
119 1 9 0.0000 3.23585 -2.3878698 -83.73399
120 1 2 0.0000 4.4848003 -2.26477 -86.2675
121 1 2 0.0000 4.96947 -5.0613303 -82.108696
122 1 6 0.0000 8.24769 -5.28864 -81.2135
123 1 1 1.0000 10.6068 -5.16415 -79.2776
124 1 2 0.0000 3.72747 -7.12326 -80.1035
125 1 2 0.0000 2.28582 -7.88882 -76.749
126 1 8 0.0000 3.4335198 -10.668499 -76.1646
127 1 2 0.0000 0.125715 -8.69085 -73.6276
128 1 16 0.0000 -1.3176299 -10.671999 -74.6176
129 1 2 0.0000 -1.01774 -7.95743 -70.5502
130 1 14 0.0000 -0.787308 -5.1200495 -70.753006
131 1 17 0.0000 -0.568997 -2.6244102 -71.454704
132 1 10 0.0000 0.654433 -4.49371 -73.03
133 1 10 0.0000 0.69662696 -1.9001601 -73.864105
134 1 2 0.0000 0.43758398 -8.56319 -67.042496
135 1 6 0.0000 2.95469 -11.0329 -66.9635
136 1 1 1.0000 4.94501 -11.8742 -65.0555
137 1 4 0.0000 2.49788 -6.5491004 -65.6052
138 1 3 -1.0000 5.3691797 -7.72159 -62.610302
139 1 4 0.0000 5.18196 -7.30376 -67.434906
140 1 3 -1.0000 6.53722 -8.1688795 -63.1329
141 1 4 0.0000 4.1800003 -5.76201 -70.4459
142 1 16 0.0000 4.88658 -7.63731 -71.884094
143 1 12 0.0000 4.3399 -2.98663 -69.6258
144 1 8 0.0000 4.18433 -0.44821697 -70.3154
145 1 9 0.0000 7.59661 -3.1383898 -68.9592
146 1 13 0.0000 9.6941 -6.09425 -67.1374
147 1 9 0.0000 8.57544 -3.7357302 -71.9164
148 1 3 -1.0000 11.7272 -4.20925 -74.6195
149 1 9 0.0000 7.7133503 -0.82176995 -73.393005
150 1 14 0.0000 5.68866 1.33273 -74.5402
151 1 14 0.0000 4.0952797 2.89184 -76.3312
152 1 15 0.0000 3.1027699 1.66546 -74.3373
153 1 12 0.0000 9.2984 1.15036 -71.2961
154 1 8 0.0000 7.3016696 2.87224 -69.8153
155 1 12 0.0000 12.4343 1.10146 -72.3003
156 1 3 -1.0000 16.348999 0.052801598 -71.6725
157 1 2 0.0000 12.698801 3.49121 -74.0782
158 1 2 0.0000 15.686899 3.87862 -74.7712
159 1 7 0.0000 9.7601 3.92853 -75.5821
160 1 6 0.0000 8.12543 5.53292 -73.7248
161 1 12 0.0000 10.936299 3.40008 -78.4858
162 1 6 0.0000 12.8657 5.95041 -79.5392
163 1 1 1.0000 13.5282 8.71192 -78.3363
164 1 12 0.0000 11.4425 0.331025 -78.4833
165 1 6 0.0000 14.3249 -0.00900507 -77.9533
166 1 1 1.0000 15.3575 -1.35566 -75.8166
167 1 12 0.0000 8.54318 -0.76475906 -78.1756
168 1 14 0.0000 6.36271 -3.4492998 -77.0104
169 1 14 0.0000 4.50104 -3.94709 -75.2344
170 1 15 0.0000 6.53642 -5.7055197 -75.7735
171 1 2 0.0000 6.24357 0.596553 -80.1519
172 1 8 0.0000 3.84629 -1.08171 -79.2846
173 1 7 0.0000 7.62598 0.744518 -83.7701
174 1 6 0.0000 9.4108 -1.54799 -84.3446
175 1 12 0.0000 8.535069 3.7957401 -83.2106
176 1 2 0.0000 6.4073095 5.04267 -80.9822
177 1 16 0.0000 6.78153 6.06248 -78.7493
178 1 2 0.0000 4.13084 6.94432 -83.2666
179 1 6 0.0000 5.58976 5.27633 -85.9515
180 1 1 1.0000 6.42175 3.29279 -88.4661
181 1 2 0.0000 2.15389 9.38292 -83.7035
182 1 13 0.0000 2.10611 7.90172 -88.006805
183 1 2 0.0000 1.7022 10.7488 -80.4136
184 1 8 0.0000 0.331911 13.5173 -80.611694
185 1 2 0.0000 3.77604 11.1129 -78.0302
186 1 10 0.0000 2.89767 13.5133 -76.204
187 1 10 0.0000 3.6088202 14.9678 -73.8759
188 1 10 0.0000 1.6476201 15.7703 -75.7161
189 1 11 0.0000 7.36899 11.052 -76.4197
190 1 2 0.0000 10.1854 9.72634 -74.2361
191 1 2 0.0000 11.196001 7.58878 -70.9121
192 1 8 0.0000 12.5849 10.107401 -69.6949
193 1 2 0.0000 12.0816 4.50326 -68.800995
194 1 6 0.0000 14.9282 4.45537 -70.1304
195 1 1 1.0000 17.349499 3.6062899 -69.390305
196 1 2 0.0000 15.6111 1.17962 -66.0671
197 1 6 0.0000 17.818901 2.74297 -64.3286
198 1 1 1.0000 17.4344 3.82869 -62.0743
199 1 4 0.0000 14.4661 -0.933721 -63.5944
200 1 6 0.0000 11.764801 -3.2856898 -62.263298
201 1 1 1.0000 9.03569 -4.66135 -61.270298
202 1 4 0.0000 12.8838005 1.13326 -61.551098
203 1 16 0.0000 11.7353 0.684292 -59.2448
204 1 4 0.0000 12.0302 3.1689599 -63.609398
205 1 3 -1.0000 15.2038 6.33184 -65.605606
206 1 4 0.0000 10.3531 1.45752 -65.5667
207 1 7 0.0000 12.029099 -1.04113 -67.7127
208 1 1 1.0000 13.273 -3.06947 -70.104996
209 1 7 0.0000 8.43675 -0.0511886 -63.3362
210 1 3 -1.0000 7.02944 -1.2207 -59.294098
211 1 7 0.0000 7.10258 2.51883 -62.027603
212 1 3 -1.0000 6.24357 -0.432361 -59.451298
213 1 7 0.0000 5.68985 3.36128 -64.7615
214 1 8 0.0000 7.72306 5.40142 -66.1093
215 1 7 0.0000 4.11834 0.453434 -64.8923
216 1 8 0.0000 4.85236 -2.48649 -65.0071
217 1 13 0.0000 2.42174 1.1683201 -62.066
218 1 7 0.0000 0.400728 3.0035498 -63.5825
219 1 14 0.0000 1.41136 5.36638 -64.8421
220 1 14 0.0000 1.9681101 6.25314 -67.2566
221 1 15 0.0000 0.285555 7.7342896 -65.5428
222 1 7 0.0000 -1.0059999 0.557946 -65.1926
223 1 8 0.0000 0.251069 -2.20173 -66.5001
224 1 7 0.0000 -1.8769599 -1.02637 -62.4786
225 1 6 0.0000 0.66225797 -3.5543 -62.2938
226 1 1 1.0000 3.66435 -4.00912 -60.700104
227 1 9 0.0000 -3.4351501 1.44867 -61.467
228 1 6 0.0000 -2.70719 1.55313 -58.0118
229 1 1 1.0000 -4.5479803 1.65661 -55.893402
230 1 7 0.0000 -5.4371204 1.88753 -63.763
231 1 9 0.0000 -7.0276203 -1.02333 -63.735
232 1 16 0.0000 -8.139259 -1.44848 -65.8907
233 1 9 0.0000 -7.8172803 -0.630498 -60.4987
234 1 2 0.0000 -8.589991 -3.57133 -59.4588
235 1 3 -1.0000 -7.3613205 2.71456 -59.5684
236 1 3 -1.0000 -8.11219 4.57828 -57.079803

Bonds

1 1 1 2
2 1 31 33
3 1 33 34
4 1 34 36
5 1 36 38
6 1 38 42
7 1 42 44
8 1 44 46
9 1 46 48
10 1 48 51
11 1 51 52
12 1 52 53
13 1 53 56
14 1 56 60
15 1 60 63
16 1 63 65
17 1 65 66
18 1 66 68
19 1 68 70
20 1 70 72
21 1 72 76
22 1 76 77
23 1 77 79
24 1 79 83
25 1 83 84
26 1 84 87
27 1 87 90
28 1 90 92
29 1 92 93
30 1 93 95
31 1 95 96
32 1 96 98
33 1 98 99
34 1 99 103
35 1 103 105
36 1 105 109
37 1 121 124
38 1 124 125
39 1 125 127
40 1 127 129
41 1 129 134
42 1 153 155
43 1 155 157
44 1 171 173
45 1 173 175
46 1 175 176
47 1 176 178
48 1 178 181
49 1 181 183
50 1 183 185
51 1 185 189
52 1 189 190
53 1 190 191
54 1 191 193
55 1 193 196
56 2 2 3
57 3 6 7
58 4 8 9
59 5 9 10
60 4 12 13
61 5 13 14
62 4 15 16
63 5 16 17
64 6 20 21
65 3 26 27
66 4 28 29
67 5 29 30
68 6 31 32
69 3 34 35
70 6 36 37
71 2 38 39
72 3 46 47
73 4 48 49
74 5 49 50
75 4 53 54
76 5 54 55
77 2 56 57
78 4 60 61
79 5 61 62
80 7 66 67
81 8 68 69
82 9 70 71
83 2 72 73
84 9 77 78
85 6 79 80
86 4 84 85
87 10 85 86
88 4 87 88
89 5 88 89
90 3 93 94
91 7 96 97
92 6 99 100
93 8 105 106
94 2 111 112
95 8 114 115
96 4 116 117
97 5 117 118
98 8 119 120
99 4 121 122
100 5 122 123
101 11 129 130
102 4 134 135
103 5 135 136
104 3 137 138
105 3 139 140
106 9 143 144
107 12 145 146
108 3 147 148
109 8 149 150
110 9 153 154
111 3 155 156
112 8 157 158
113 7 159 160
114 4 161 162
115 5 162 163
116 4 164 165
117 5 165 166
118 8 167 168
119 7 173 174
120 4 178 179
121 5 179 180
122 12 181 182
123 6 185 186
124 4 193 194
125 5 194 195
126 4 196 197
127 5 197 198
128 4 199 200
129 5 200 201
130 3 204 205
131 4 206 207
132 10 207 208
133 3 209 210
134 2 211 212
135 9 213 214
136 8 218 219
137 9 222 223
138 4 224 225
139 5 225 226
140 4 227 228
141 5 228 229
142 8 233 234
143 3 235 236
144 13 2 4
145 14 4 6
146 14 6 8
147 14 8 11
148 14 11 12
149 14 12 15
150 14 15 18
151 14 18 20
152 14 20 24
153 14 24 26
154 14 26 28
155 13 28 31
156 13 109 111
157 14 111 113
158 14 113 114
159 14 114 116
160 14 116 119
161 13 119 121
162 13 134 137
163 14 137 139
164 14 139 141
165 14 141 143
166 14 143 145
167 14 145 147
168 14 147 149
169 13 149 153
170 13 157 159
171 14 159 161
172 14 161 164
173 14 164 167
174 13 167 171
175 13 196 199
176 14 199 202
177 14 202 204
178 14 204 206
179 14 206 209
180 14 209 211
181 14 211 213
182 14 213 215
183 14 215 217
184 14 217 218
185 14 218 222
186 14 222 224
187 14 224 227
188 14 227 230
189 14 230 231
190 14 231 233
191 13 233 235
192 15 4 5
193 14 18 19
194 16 21 22
195 16 21 23
196 16 22 23
197 15 24 25
198 16 39 40
199 16 39 41
200 16 40 41
201 17 42 43
202 15 44 45
203 16 57 58
204 16 57 59
205 16 58 59
206 17 63 64
207 16 73 74
208 16 73 75
209 16 74 75
210 16 80 81
211 16 80 82
212 16 81 82
213 17 90 91
214 16 100 101
215 16 100 102
216 16 101 102
217 17 103 104
218 16 106 107
219 16 106 108
220 16 107 108
221 17 109 110
222 14 125 126
223 17 127 128
224 16 130 131
225 16 130 132
226 16 131 132
227 16 131 133
228 16 132 133
229 17 141 142
230 16 150 151
231 16 150 152
232 16 151 152
233 16 168 169
234 16 168 170
235 16 169 170
236 14 171 172
237 17 176 177
238 14 183 184
239 16 186 187
240 16 186 188
241 16 187 188
242 14 191 192
243 17 202 203
244 14 215 216
245 16 219 220
246 16 219 221
247 16 220 221
248 17 231 232

Angles

1 1 1 2 4
2 1 2 4 6
3 2 4 6 8
4 2 6 8 11
5 2 8 11 12
6 2 11 12 15
7 2 12 15 18
8 2 15 18 20
9 2 18 20 24
10 2 20 24 26
11 2 24 26 28
12 3 26 28 31
13 3 28 31 33
14 3 31 33 34
15 3 33 34 36
16 3 34 36 38
17 3 36 38 42
18 1 38 42 44
19 1 42 44 46
20 3 44 46 48
21 3 46 48 51
22 3 48 51 52
23 3 51 52 53
24 1 52 53 56
25 1 53 56 60
26 1 56 60 63
27 1 60 63 65
28 4 63 65 66
29 1 65 66 68
30 1 66 68 70
31 3 68 70 72
32 3 70 72 76
33 3 72 76 77
34 3 76 77 79
35 3 77 79 83
36 3 79 83 84
37 3 83 84 87
38 3 84 87 90
39 3 87 90 92
40 3 90 92 93
41 3 92 93 95
42 1 93 95 96
43 3 95 96 98
44 3 96 98 99
45 3 98 99 103
46 1 99 103 105
47 1 103 105 109
48 1 105 109 111
49 1 109 111 113
50 2 111 113 114
51 2 113 114 116
52 2 114 116 119
53 1 116 119 121
54 1 119 121 124
55 1 121 124 125
56 1 124 125 127
57 1 125 127 129
58 1 127 129 134
59 1 129 134 137
60 4 134 137 139
61 2 137 139 141
62 2 139 141 143
63 2 141 143 145
64 2 143 145 147
65 2 145 147 149
66 3 147 149 153
67 3 149 153 155
68 3 153 155 157
69 3 155 157 159
70 5 157 159 161
71 5 159 161 164
72 2 161 164 167
73 4 164 167 171
74 4 167 171 173
75 3 171 173 175
76 3 173 175 176
77 3 175 176 178
78 1 176 178 181
79 1 178 181 183
80 1 181 183 185
81 1 183 185 189
82 1 185 189 190
83 1 189 190 191
84 1 190 191 193
85 1 191 193 196
86 1 193 196 199
87 4 196 199 202
88 2 199 202 204
89 2 202 204 206
90 2 204 206 209
91 2 206 209 211
92 2 209 211 213
93 2 211 213 215
94 2 213 215 217
95 2 215 217 218
96 2 217 218 222
97 2 218 222 224
98 2 222 224 227
99 2 224 227 230
100 2 227 230 231
101 2 230 231 233
102 1 231 233 235
103 6 1 2 3
104 6 2 4 5
105 6 4 6 7
106 6 6 8 9
107 6 11 12 13
108 6 12 15 16
109 6 15 18 19
110 6 18 20 21
111 6 20 24 25
112 6 24 26 27
113 6 26 28 29
114 6 28 31 32
115 6 33 34 35
116 6 34 36 37
117 6 36 38 39
118 6 38 42 43
119 6 42 44 45
120 6 44 46 47
121 6 46 48 49
122 6 52 53 54
123 6 53 56 57
124 6 56 60 61
125 6 60 63 64
126 6 65 66 67
127 6 66 68 69
128 6 68 70 71
129 6 70 72 73
130 6 76 77 78
131 6 77 79 80
132 6 83 84 85
133 6 84 87 88
134 6 87 90 91
135 6 92 93 94
136 6 95 96 97
137 6 98 99 100
138 6 99 103 104
139 6 103 105 106
140 6 105 109 110
141 6 109 111 112
142 6 113 114 115
143 6 114 116 117
144 6 116 119 120
145 6 119 121 122
146 6 124 125 126
147 6 125 127 128
148 6 127 129 130
149 6 129 134 135
150 6 134 137 138
151 6 137 139 140
152 6 139 141 142
153 6 141 143 144
154 6 143 145 146
155 6 145 147 148
156 6 147 149 150
157 6 149 153 154
158 6 153 155 156
159 6 155 157 158
160 6 157 159 160
161 6 159 161 162
162 6 161 164 165
163 6 164 167 168
164 6 167 171 172
165 6 171 173 174
166 6 175 176 177
167 6 176 178 179
168 6 178 181 182
169 6 181 183 184
170 6 183 185 186
171 6 190 191 192
172 6 191 193 194
173 6 193 196 197
174 6 196 199 200
175 6 199 202 203
176 6 202 204 205
177 6 204 206 207
178 6 206 209 210
179 6 209 211 212
180 6 211 213 214
181 6 213 215 216
182 6 217 218 219
183 6 218 222 223
184 6 222 224 225
185 6 224 227 228
186 6 230 231 232
187 6 231 233 234
188 6 233 235 236
189 7 8 9 10
190 7 12 13 14
191 7 15 16 17
192 8 20 21 22
193 8 20 21 23
194 7 28 29 30
195 8 38 39 40
196 8 38 39 41
197 7 48 49 50
198 7 53 54 55
199 8 56 57 58
200 8 56 57 59
201 7 60 61 62
202 8 72 73 74
203 8 72 73 75
204 8 79 80 81
205 8 79 80 82
206 7 84 85 86
207 7 87 88 89
208 8 99 100 101
209 8 99 100 102
210 8 105 106 107
211 8 105 106 108
212 7 116 117 118
213 7 121 122 123
214 9 129 130 131
215 10 129 130 132
216 7 134 135 136
217 8 149 150 151
218 8 149 150 152
219 7 161 162 163
220 7 164 165 166
221 8 167 168 169
222 8 167 168 170
223 7 178 179 180
224 8 185 186 187
225 8 185 186 188
226 7 193 194 195
227 7 196 197 198
228 7 199 200 201
229 7 206 207 208
230 8 218 219 220
231 8 218 219 221
232 7 224 225 226
233 7 227 228 229

Dihedrals

1 1 4 6 8 11
2 1 6 8 11 12
3 1 8 11 12 15
4 1 11 12 15 18
5 1 12 15 18 20
6 1 15 18 20 24
7 1 18 20 24 26
8 1 20 24 26 28
9 1 111 113 114 116
10 1 113 114 116 119
11 1 137 139 141 143
12 1 139 141 143 145
13 1 141 143 145 147
14 1 143 145 147 149
15 1 159 161 164 167
16 1 199 202 204 206
17 1 202 204 206 209
18 1 204 206 209 211
19 1 206 209 211 213
20 1 209 211 213 215
21 1 211 213 215 217
22 1 213 215 217 218
23 1 215 217 218 222
24 1 217 218 222 224
25 1 218 222 224 227
26 1 222 224 227 230
27 1 224 227 230 231
28 1 227 230 231 233

Impropers

1 1 20 22 23 21
2 1 38 40 41 39
3 1 56 58 59 57
4 1 72 74 75 73
5 1 79 81 82 80
6 1 99 101 102 100
7 1 105 107 108 106
8 1 129 131 132 130
9 2 130 131 133 132
10 1 149 151 152 150
11 1 167 169 170 168
12 1 185 187 188 186
13 1 218 220 221 219

