comment

236 atoms
248 bonds
233 angles
28 dihedrals
13 impropers

17 atom types
17 bond types
10 angle types
1 dihedral types
2 improper types

-40.5 40.5 xlo xhi
-40.5 40.5 ylo yhi
-190.0 190.0 zlo zhi

Masses

1 72.0
2 72.0
3 72.0
4 72.0
5 72.0
6 72.0
7 72.0
8 72.0
9 72.0
10 45.0
11 72.0
12 72.0
13 72.0
14 45.0
15 45.0
16 72.0
17 45.0

PairIJ Coeffs

1 1 1.19503 4.699999999999999
1 2 1.3384336 4.699999999999999
1 3 1.3384336 4.699999999999999
1 4 0.956024 4.699999999999999
1 5 0.478012 4.699999999999999
1 6 0.5497137999999999 4.699999999999999
1 7 0.836521 4.699999999999999
1 8 0.478012 4.699999999999999
1 9 1.19503 4.699999999999999
1 10 0.7409186 4.699999999999999
1 11 1.3384336 4.699999999999999
1 12 1.19503 4.699999999999999
1 13 0.7409186 4.699999999999999
1 14 0.6453162 4.699999999999999
1 15 1.19503 4.699999999999999
1 16 1.19503 4.699999999999999
1 17 0.956024 4.699999999999999
2 2 1.3384336 4.699999999999999
2 3 1.3384336 4.699999999999999
2 4 1.19503 4.699999999999999
2 5 0.5497137999999999 4.699999999999999
2 6 0.6453162 4.699999999999999
2 7 0.836521 4.699999999999999
2 8 0.478012 4.699999999999999
2 9 1.19503 4.699999999999999
2 10 0.7409186 4.699999999999999
2 11 1.3384336 4.699999999999999
2 12 1.19503 4.699999999999999
2 13 0.7409186 4.699999999999999
2 14 0.6453162 4.699999999999999
2 15 1.3384336 4.699999999999999
2 16 1.3384336 4.699999999999999
2 17 1.19503 4.699999999999999
3 3 1.19503 4.699999999999999
3 4 1.19503 4.699999999999999
3 5 0.478012 4.699999999999999
3 6 0.5497137999999999 4.699999999999999
3 7 0.836521 4.699999999999999
3 8 0.478012 4.699999999999999
3 9 0.956024 4.699999999999999
3 10 0.7409186 4.699999999999999
3 11 1.3384336 4.699999999999999
3 12 1.19503 4.699999999999999
3 13 0.7409186 4.699999999999999
3 14 0.6453162 4.699999999999999
3 15 1.19503 4.699999999999999
3 16 1.19503 4.699999999999999
3 17 1.19503 4.699999999999999
4 4 0.956024 4.699999999999999
4 5 0.6453162 4.699999999999999
4 6 0.6453162 4.699999999999999
4 7 0.836521 4.699999999999999
4 8 0.6453162 4.699999999999999
4 9 1.075527 4.699999999999999
4 10 0.836521 4.699999999999999
4 11 0.956024 4.699999999999999
4 12 1.075527 4.699999999999999
4 13 0.836521 4.699999999999999
4 14 0.7409186 4.699999999999999
4 15 1.075527 4.699999999999999
4 16 1.075527 4.699999999999999
4 17 0.956024 4.699999999999999
5 5 0.836521 4.699999999999999
5 6 0.836521 4.699999999999999
5 7 0.7409186 4.699999999999999
5 8 0.836521 4.699999999999999
5 9 0.6453162 4.699999999999999
5 10 0.7409186 4.699999999999999
5 11 0.5497137999999999 4.699999999999999
5 12 0.6453162 4.699999999999999
5 13 0.7409186 4.699999999999999
5 14 0.7409186 4.699999999999999
5 15 0.7409186 4.699999999999999
5 16 0.7409186 4.699999999999999
5 17 0.6453162 4.699999999999999
6 6 0.836521 4.699999999999999
6 7 0.836521 4.699999999999999
6 8 0.836521 4.699999999999999
6 9 0.6453162 4.699999999999999
6 10 0.836521 4.699999999999999
6 11 0.6453162 4.699999999999999
6 12 0.6453162 4.699999999999999
6 13 0.836521 4.699999999999999
6 14 0.836521 4.699999999999999
6 15 0.836521 4.699999999999999
6 16 0.836521 4.699999999999999
6 17 0.6453162 4.699999999999999
7 7 0.836521 4.699999999999999
7 8 0.6453162 4.699999999999999
7 9 0.836521 4.699999999999999
7 10 0.836521 4.699999999999999
7 11 0.836521 4.699999999999999
7 12 0.836521 4.699999999999999
7 13 0.836521 4.699999999999999
7 14 0.836521 4.699999999999999
7 15 0.956024 4.699999999999999
7 16 0.956024 4.699999999999999
7 17 0.836521 4.699999999999999
8 8 0.836521 4.699999999999999
8 9 0.6453162 4.699999999999999
8 10 0.7409186 4.699999999999999
8 11 0.478012 4.699999999999999
8 12 0.6453162 4.699999999999999
8 13 0.7409186 4.699999999999999
8 14 0.7409186 4.699999999999999
8 15 0.6453162 4.699999999999999
8 16 0.6453162 4.699999999999999
8 17 0.6453162 4.699999999999999
9 9 0.956024 4.699999999999999
9 10 0.836521 4.699999999999999
9 11 0.956024 4.699999999999999
9 12 1.075527 4.699999999999999
9 13 0.836521 4.699999999999999
9 14 0.7409186 4.699999999999999
9 15 1.075527 4.699999999999999
9 16 1.075527 4.699999999999999
9 17 1.075527 4.699999999999999
10 10 0.62739075 4.3
10 11 0.7409186 4.699999999999999
10 12 0.836521 4.699999999999999
10 13 0.836521 4.699999999999999
10 14 0.62739075 4.3
10 15 0.62739075 4.3
10 16 0.836521 4.699999999999999
10 17 0.62739075 4.3
11 11 1.19503 4.699999999999999
11 12 0.956024 4.699999999999999
11 13 0.7409186 4.699999999999999
11 14 0.6453162 4.699999999999999
11 15 1.075527 4.699999999999999
11 16 1.075527 4.699999999999999
11 17 0.956024 4.699999999999999
12 12 1.075527 4.699999999999999
12 13 0.836521 4.699999999999999
12 14 0.7409186 4.699999999999999
12 15 1.075527 4.699999999999999
12 16 1.075527 4.699999999999999
12 17 1.075527 4.699999999999999
13 13 0.836521 4.699999999999999
13 14 0.836521 4.699999999999999
13 15 0.836521 4.699999999999999
13 16 0.836521 4.699999999999999
13 17 0.836521 4.699999999999999
14 14 0.62739075 4.3
14 15 0.62739075 4.3
14 16 0.836521 4.699999999999999
14 17 0.5556889500000001 4.3
15 15 0.80664525 4.3
15 16 1.075527 4.699999999999999
15 17 0.80664525 4.3
16 16 1.075527 4.699999999999999
16 17 1.075527 4.699999999999999
17 17 0.7170179999999999 4.3

Bond Coeffs

1 1.4937875 3.5
2 8.962725 3.2
3 5.97515 4.0
4 5.97515 3.3000000000000003
5 5.97515 2.8000000000000003
6 8.962725 3.1
7 8.962725 3.0
8 5.97515 3.2
9 8.962725 3.3000000000000003
10 5.97515 3.4000000000000004
11 5.97515 3.0
12 2.987575 4.0
13 11.9503 3.3000000000000003
14 11.9503 3.1
15 11.9503 2.6500000000000004
16 11.9503 2.7
17 11.9503 2.6

Angle Coeffs

1 2.39006 127
2 83.6521 96
3 2.39006 100
4 2.39006 130
5 11.9503 98
6 2.987575 100
7 2.987575 180
8 5.97515 150
9 5.97515 210
10 5.97515 90

Dihedral Coeffs

1 95.6024 1 -120 0

Improper Coeffs

1 5.97515 0
2 23.9006 0

Atoms

1 1 1 1.0000 1.2549999 -0.027 -48.818
2 1 2 0.0000 0.119824 0.13052 -50.8431
3 1 3 -1.0000 -0.99038494 -1.07636 -53.0686
4 1 4 0.0000 1.57128 2.28686 -54.3548
5 1 5 0.0000 3.28817 0.408905 -55.6783
6 1 4 0.0000 1.51389 5.2451496 -54.8599
7 1 3 -1.0000 -1.7600299 6.2427197 -55.9564
8 1 4 0.0000 4.20747 5.7962604 -55.995003
9 1 6 0.0000 6.9932504 3.91106 -55.0238
10 1 1 1.0000 7.99398 2.71527 -57.122597
11 1 4 0.0000 4.06536 4.72205 -59.1514
12 1 7 0.0000 1.83443 6.8817 -60.2005
13 1 6 0.0000 -1.23807 6.96758 -60.839
14 1 1 1.0000 -4.14425 5.98782 -60.093697
15 1 7 0.0000 3.4839299 9.52666 -59.4247
16 1 6 0.0000 2.1556 11.2528 -56.8273
17 1 1 1.0000 0.128114 10.2569 -55.2396
18 1 7 0.0000 6.1998897 9.031469 -61.294197
19 1 8 0.0000 8.152269 6.7992697 -59.803802
20 1 9 0.0000 4.57604 9.64519 -64.1409
21 1 10 0.0000 5.05677 9.52147 -67.249695
22 1 10 0.0000 4.9036303 9.595119 -69.6642
23 1 10 0.0000 7.1926203 8.72024 -69.269196
24 1 9 0.0000 3.51771 12.804199 -63.783398
25 1 5 0.0000 1.4261 14.6207 -63.4866
26 1 9 0.0000 6.6621103 14.022599 -63.241302
27 1 11 0.0000 4.873 17.3685 -64.7416
28 1 9 0.0000 8.0400505 12.933199 -65.8771
29 1 6 0.0000 9.18375 10.563499 -65.1537
30 1 1 1.0000 11.653399 9.26748 -64.388
31 1 12 0.0000 7.45393 14.0002 -68.9943
32 1 13 0.0000 8.74945 13.9713 -71.3329
33 1 7 0.0000 3.75025 14.4214 -68.9707
34 1 12 0.0000 1.21671 12.592401 -68.3641
35 1 11 0.0000 -1.5378299 15.9408 -68.3049
36 1 12 0.0000 0.0295372 12.5653 -71.9202
37 1 13 0.0000 -0.398278 15.6982 -71.3197
38 1 2 0.0000 -0.33406 8.97873 -71.082
39 1 14 0.0000 2.25852 7.6494 -72.2182
40 1 15 0.0000 3.4415798 5.64723 -72.206894
41 1 15 0.0000 3.87395 7.1497498 -74.1907
42 1 2 0.0000 -3.28829 7.5675898 -71.2168
43 1 16 0.0000 -4.22464 8.22249 -73.4542
44 1 2 0.0000 -4.6809397 6.75071 -68.2111
45 1 5 0.0000 -3.28563 4.76141 -67.3759
46 1 2 0.0000 -6.91733 6.78752 -65.1445
47 1 3 -1.0000 -5.31376 9.75133 -62.508503
48 1 12 0.0000 -10.1098 4.23085 -64.5637
49 1 6 0.0000 -11.556601 2.58735 -61.595997
50 1 1 1.0000 -11.6303005 1.5587101 -58.8278
51 1 12 0.0000 -12.5686 5.77132 -66.4268
52 1 2 0.0000 -9.83824 8.068 -67.6056
53 1 2 0.0000 -10.3397 10.5058 -66.0539
54 1 6 0.0000 -10.501699 9.14795 -63.0006
55 1 1 1.0000 -9.14271 7.8485003 -60.9555
56 1 2 0.0000 -9.0993395 12.441501 -70.1459
57 1 14 0.0000 -10.2428 10.5207 -72.2792
58 1 15 0.0000 -8.78129 8.24244 -72.3069
59 1 15 0.0000 -11.668 8.17151 -72.2987
60 1 2 0.0000 -4.99995 12.9283 -71.3903
61 1 6 0.0000 -4.4477 11.673201 -68.4312
62 1 1 1.0000 -3.1473198 11.037001 -66.159
63 1 2 0.0000 -4.1851897 12.8356 -75.453804
64 1 16 0.0000 -3.7532601 14.95 -76.8849
65 1 2 0.0000 -1.2559199 10.1341 -76.5787
66 1 11 0.0000 -0.0802691 6.73415 -77.1381
67 1 6 0.0000 1.41576 5.92721 -79.3362
68 1 2 0.0000 -1.07876 4.7617097 -75.4749
69 1 2 0.0000 -4.10186 4.34064 -77.126495
70 1 2 0.0000 -1.92954 2.71431 -73.164
71 1 8 0.0000 0.0935006 2.2686 -70.5975
72 1 12 0.0000 -5.5859704 2.8186102 -73.9644
73 1 14 0.0000 -7.10266 3.2389 -71.3416
74 1 15 0.0000 -9.3058405 4.0702 -70.1942
75 1 15 0.0000 -7.59759 3.0096002 -68.5134
76 1 12 0.0000 -7.27466 -1.48256 -73.3954
77 1 2 0.0000 -4.9206 -2.1845 -71.435196
78 1 8 0.0000 -4.52402 -0.618177 -68.6348
79 1 12 0.0000 -6.1496696 -5.14174 -70.219795
80 1 10 0.0000 -4.7167797 -6.2599897 -67.6951
81 1 10 0.0000 -3.8425498 -5.60046 -65.2496
82 1 10 0.0000 -6.13056 -6.88688 -65.4737
83 1 12 0.0000 -5.1836004 -7.73061 -72.761696
84 1 2 0.0000 -5.3183503 -6.9649305 -76.1057
85 1 7 0.0000 -3.88173 -4.20054 -75.8435
86 1 1 1.0000 -3.04321 -1.07751 -76.3698
87 1 2 0.0000 -3.72338 -7.6627703 -80.0139
88 1 6 0.0000 -0.766328 -9.22346 -80.451096
89 1 1 1.0000 1.1046801 -11.090799 -81.2292
90 1 12 0.0000 -1.8548 -4.09595 -80.2294
91 1 16 0.0000 0.08810119 -4.17631 -78.7505
92 1 12 0.0000 -5.50514 -3.34576 -81.098495
93 1 2 0.0000 -6.86235 -0.436164 -79.6521
94 1 11 0.0000 -8.99732 -3.43009 -77.619
95 1 11 0.0000 -8.1777 1.9205999 -78.411
96 1 7 0.0000 -10.027699 4.79913 -75.64
97 1 6 0.0000 -12.3343 3.0360699 -74.8877
98 1 12 0.0000 -8.32717 7.0334296 -76.7077
99 1 2 0.0000 -7.98441 5.4039903 -80.728
100 1 10 0.0000 -7.4079 7.83081 -82.87131
101 1 10 0.0000 -5.77026 8.0433 -84.7585
102 1 10 0.0000 -7.37708 10.2177 -84.2672
103 1 2 0.0000 -4.8364 3.5236402 -82.3994
104 1 16 0.0000 -5.63546 1.7689099 -83.9672
105 1 2 0.0000 -2.18509 5.69744 -82.6266
106 1 14 0.0000 -3.19035 8.33769 -81.107704
107 1 14 0.0000 -4.68044 9.42846 -79.5229
108 1 15 0.0000 -3.06664 10.8401 -81.3609
109 1 2 0.0000 -0.900908 4.6940603 -85.648605
110 1 16 0.0000 -2.3211699 5.6874 -87.8247
111 1 4 0.0000 1.9994301 3.2100701 -85.63171
112 1 3 -1.0000 2.23306 1.32552 -87.966805
113 1 7 0.0000 2.69025 2.2456698 -82.72681
114 1 12 0.0000 -0.0317126 0.895123 -81.860504
115 1 2 0.0000 -0.371777 1.4477899 -79.1896
116 1 12 0.0000 -0.188225 -1.29145 -84.1734
117 1 6 0.0000 -2.11997 -0.796122 -86.6652
118 1 1 1.0000 -2.02926 0.240648 -89.1113
119 1 9 0.0000 2.4007502 -3.07417 -83.309296
120 1 2 0.0000 4.34993 -2.51057 -85.9148
121 1 2 0.0000 4.33352 -5.4799995 -81.861496
122 1 6 0.0000 7.70967 -4.68044 -81.4246
123 1 1 1.0000 9.90807 -4.69464 -79.7876
124 1 2 0.0000 4.09417 -7.4416103 -79.8525
125 1 2 0.0000 2.9414601 -7.96457 -76.7896
126 1 8 0.0000 2.73036 -11.0668 -76.4766
127 1 2 0.0000 -0.0317167 -7.76685 -74.5913
128 1 16 0.0000 -0.86895597 -10.0501 -74.8177
129 1 2 0.0000 -1.16205 -8.52043 -70.265
130 1 14 0.0000 -0.98064303 -5.1586003 -70.5505
131 1 17 0.0000 -0.0821641 -2.88681 -71.76
132 1 10 0.0000 0.0166721 -5.27807 -73.1678
133 1 10 0.0000 0.92326 -2.85425 -74.0859
134 1 2 0.0000 0.288402 -8.95269 -66.1966
135 1 6 0.0000 2.9482298 -10.7084 -67.391
136 1 1 1.0000 4.81665 -11.8329 -65.0385
137 1 4 0.0000 2.51644 -6.43763 -66.0731
138 1 3 -1.0000 5.20815 -7.9751005 -62.631603
139 1 4 0.0000 5.15257 -7.59372 -67.5534
140 1 3 -1.0000 6.48089 -8.01474 -63.541496
141 1 4 0.0000 4.5623903 -6.31867 -70.712296
142 1 16 0.0000 5.1281 -8.36421 -72.2885
143 1 12 0.0000 4.78416 -3.51053 -69.647
144 1 8 0.0000 4.01574 -0.666658 -70.0751
145 1 9 0.0000 7.9757204 -3.5713198 -68.7096
146 1 13 0.0000 10.4919 -6.09292 -66.7573
147 1 9 0.0000 8.97111 -3.32725 -72.069
148 1 3 -1.0000 11.5744 -4.08335 -74.9113
149 1 9 0.0000 7.5569 -0.340471 -72.6782
150 1 14 0.0000 5.50494 0.944719 -74.6644
151 1 14 0.0000 4.1519203 2.81082 -76.19
152 1 15 0.0000 2.96975 1.12713 -74.9006
153 1 12 0.0000 9.29262 1.6000301 -71.1052
154 1 8 0.0000 7.09728 3.6397698 -70.1477
155 1 12 0.0000 12.4492 0.92769897 -72.1594
156 1 3 -1.0000 16.2215 0.261776 -71.2382
157 1 2 0.0000 13.159699 3.97378 -74.042
158 1 2 0.0000 16.1026 4.11715 -74.8255
159 1 7 0.0000 10.2143 3.5191898 -75.3105
160 1 6 0.0000 8.74851 5.3400097 -74.2893
161 1 12 0.0000 11.051399 3.5560102 -78.4628
162 1 6 0.0000 12.4237 6.4526405 -79.5075
163 1 1 1.0000 11.2642 8.82605 -79.85
164 1 12 0.0000 11.5272 0.33187503 -78.7344
165 1 6 0.0000 14.043799 0.0169006 -76.9051
166 1 1 1.0000 15.4941 -1.6640501 -75.4754
167 1 12 0.0000 8.694981 -0.599083 -78.203
168 1 14 0.0000 6.9459 -2.6070402 -76.639
169 1 14 0.0000 4.75149 -3.86883 -75.0581
170 1 15 0.0000 6.5076203 -5.17147 -76.159904
171 1 2 0.0000 6.43311 0.530406 -80.3745
172 1 8 0.0000 4.08319 -1.22522 -79.0877
173 1 7 0.0000 7.07615 -0.27486402 -83.1025
174 1 6 0.0000 9.218861 -1.00705 -84.9731
175 1 12 0.0000 9.3083 3.4562201 -83.0275
176 1 2 0.0000 6.4870696 4.51833 -80.9895
177 1 16 0.0000 6.98062 6.02711 -79.1461
178 1 2 0.0000 5.36295 6.94324 -83.8125
179 1 6 0.0000 6.91115 4.82344 -85.766
180 1 1 1.0000 6.4529505 2.52767 -87.2079
181 1 2 0.0000 2.30288 9.5562 -82.9311
182 1 13 0.0000 1.36587 8.41971 -87.0005
183 1 2 0.0000 2.22709 11.5347 -80.6845
184 1 8 0.0000 0.49960598 14.152699 -80.4787
185 1 2 0.0000 3.88567 11.2034 -77.7291
186 1 10 0.0000 2.93903 13.2068 -75.8742
187 1 10 0.0000 3.40315 15.8851 -74.7375
188 1 10 0.0000 1.2484701 15.124399 -75.7924
189 1 11 0.0000 7.28087 10.5901 -77.0235
190 1 2 0.0000 9.12743 9.83996 -73.6541
191 1 2 0.0000 11.4637 7.7510796 -70.8682
192 1 8 0.0000 12.817201 10.455299 -69.7408
193 1 2 0.0000 11.9345 4.8098903 -68.4608
194 1 6 0.0000 14.7945 4.62825 -69.6552
195 1 1 1.0000 16.763 3.90013 -68.580795
196 1 2 0.0000 15.648299 1.13311 -65.9686
197 1 6 0.0000 17.6846 2.35786 -63.6268
198 1 1 1.0000 18.0371 4.3980603 -61.8785
199 1 4 0.0000 14.2382 -1.15115 -63.8792
200 1 6 0.0000 11.670199 -3.6140099 -62.4076
201 1 1 1.0000 8.98333 -4.70405 -61.6502
202 1 4 0.0000 12.7949 0.83787096 -61.7853
203 1 16 0.0000 12.000099 0.494917 -59.534
204 1 4 0.0000 12.2342005 3.1800601 -63.734596
205 1 3 -1.0000 14.952801 5.95789 -64.5818
206 1 4 0.0000 10.2114 1.1000301 -65.8025
207 1 7 0.0000 12.076599 -1.27917 -67.9588
208 1 1 1.0000 13.369599 -3.56907 -70.4395
209 1 7 0.0000 8.66871 -0.0877451 -63.7252
210 1 3 -1.0000 6.6188903 -0.985569 -59.9275
211 1 7 0.0000 7.0532503 2.60584 -62.4422
212 1 3 -1.0000 6.33898 -0.381352 -60.0799
213 1 7 0.0000 5.48506 2.97579 -65.1953
214 1 8 0.0000 7.23217 5.92952 -65.489204
215 1 7 0.0000 4.06117 0.094439 -65.1789
216 1 8 0.0000 4.9544 -2.52844 -65.0307
217 1 13 0.0000 2.41729 0.774177 -62.317
218 1 7 0.0000 0.905082 3.0998502 -63.818203
219 1 14 0.0000 1.2914599 5.61331 -65.4616
220 1 14 0.0000 2.3949 5.89347 -67.836296
221 1 15 0.0000 0.351921 7.4868703 -66.5913
222 1 7 0.0000 -0.587723 0.954113 -65.8755
223 1 8 0.0000 0.37852898 -2.00764 -67.2051
224 1 7 0.0000 -1.8236301 -0.945865 -63.270897
225 1 6 0.0000 0.88974 -3.6052098 -62.0084
226 1 1 1.0000 3.2811902 -4.16958 -60.8489
227 1 9 0.0000 -3.1545901 1.38651 -61.8232
228 1 6 0.0000 -2.50843 1.70263 -58.7653
229 1 1 1.0000 -3.97785 1.9122 -56.4016
230 1 7 0.0000 -5.49357 2.15102 -64.2101
231 1 9 0.0000 -6.96095 -0.856489 -64.1215
232 1 16 0.0000 -8.56528 -1.40554 -66.2017
233 1 9 0.0000 -7.68538 -0.806949 -61.061203
234 1 2 0.0000 -5.53086 -2.4501 -59.1614
235 1 3 -1.0000 -7.1912403 2.64463 -60.1511
236 1 3 -1.0000 -8.2657995 4.46858 -57.761

Bonds

1 1 1 2
2 1 31 33
3 1 33 34
4 1 34 36
5 1 36 38
6 1 38 42
7 1 42 44
8 1 44 46
9 1 46 48
10 1 48 51
11 1 51 52
12 1 52 53
13 1 53 56
14 1 56 60
15 1 60 63
16 1 63 65
17 1 65 66
18 1 66 68
19 1 68 70
20 1 70 72
21 1 72 76
22 1 76 77
23 1 77 79
24 1 79 83
25 1 83 84
26 1 84 87
27 1 87 90
28 1 90 92
29 1 92 93
30 1 93 95
31 1 95 96
32 1 96 98
33 1 98 99
34 1 99 103
35 1 103 105
36 1 105 109
37 1 121 124
38 1 124 125
39 1 125 127
40 1 127 129
41 1 129 134
42 1 153 155
43 1 155 157
44 1 171 173
45 1 173 175
46 1 175 176
47 1 176 178
48 1 178 181
49 1 181 183
50 1 183 185
51 1 185 189
52 1 189 190
53 1 190 191
54 1 191 193
55 1 193 196
56 2 2 3
57 3 6 7
58 4 8 9
59 5 9 10
60 4 12 13
61 5 13 14
62 4 15 16
63 5 16 17
64 6 20 21
65 3 26 27
66 4 28 29
67 5 29 30
68 6 31 32
69 3 34 35
70 6 36 37
71 2 38 39
72 3 46 47
73 4 48 49
74 5 49 50
75 4 53 54
76 5 54 55
77 2 56 57
78 4 60 61
79 5 61 62
80 7 66 67
81 8 68 69
82 9 70 71
83 2 72 73
84 9 77 78
85 6 79 80
86 4 84 85
87 10 85 86
88 4 87 88
89 5 88 89
90 3 93 94
91 7 96 97
92 6 99 100
93 8 105 106
94 2 111 112
95 8 114 115
96 4 116 117
97 5 117 118
98 8 119 120
99 4 121 122
100 5 122 123
101 11 129 130
102 4 134 135
103 5 135 136
104 3 137 138
105 3 139 140
106 9 143 144
107 12 145 146
108 3 147 148
109 8 149 150
110 9 153 154
111 3 155 156
112 8 157 158
113 7 159 160
114 4 161 162
115 5 162 163
116 4 164 165
117 5 165 166
118 8 167 168
119 7 173 174
120 4 178 179
121 5 179 180
122 12 181 182
123 6 185 186
124 4 193 194
125 5 194 195
126 4 196 197
127 5 197 198
128 4 199 200
129 5 200 201
130 3 204 205
131 4 206 207
132 10 207 208
133 3 209 210
134 2 211 212
135 9 213 214
136 8 218 219
137 9 222 223
138 4 224 225
139 5 225 226
140 4 227 228
141 5 228 229
142 8 233 234
143 3 235 236
144 13 2 4
145 14 4 6
146 14 6 8
147 14 8 11
148 14 11 12
149 14 12 15
150 14 15 18
151 14 18 20
152 14 20 24
153 14 24 26
154 14 26 28
155 13 28 31
156 13 109 111
157 14 111 113
158 14 113 114
159 14 114 116
160 14 116 119
161 13 119 121
162 13 134 137
163 14 137 139
164 14 139 141
165 14 141 143
166 14 143 145
167 14 145 147
168 14 147 149
169 13 149 153
170 13 157 159
171 14 159 161
172 14 161 164
173 14 164 167
174 13 167 171
175 13 196 199
176 14 199 202
177 14 202 204
178 14 204 206
179 14 206 209
180 14 209 211
181 14 211 213
182 14 213 215
183 14 215 217
184 14 217 218
185 14 218 222
186 14 222 224
187 14 224 227
188 14 227 230
189 14 230 231
190 14 231 233
191 13 233 235
192 15 4 5
193 14 18 19
194 16 21 22
195 16 21 23
196 16 22 23
197 15 24 25
198 16 39 40
199 16 39 41
200 16 40 41
201 17 42 43
202 15 44 45
203 16 57 58
204 16 57 59
205 16 58 59
206 17 63 64
207 16 73 74
208 16 73 75
209 16 74 75
210 16 80 81
211 16 80 82
212 16 81 82
213 17 90 91
214 16 100 101
215 16 100 102
216 16 101 102
217 17 103 104
218 16 106 107
219 16 106 108
220 16 107 108
221 17 109 110
222 14 125 126
223 17 127 128
224 16 130 131
225 16 130 132
226 16 131 132
227 16 131 133
228 16 132 133
229 17 141 142
230 16 150 151
231 16 150 152
232 16 151 152
233 16 168 169
234 16 168 170
235 16 169 170
236 14 171 172
237 17 176 177
238 14 183 184
239 16 186 187
240 16 186 188
241 16 187 188
242 14 191 192
243 17 202 203
244 14 215 216
245 16 219 220
246 16 219 221
247 16 220 221
248 17 231 232

Angles

1 1 1 2 4
2 1 2 4 6
3 2 4 6 8
4 2 6 8 11
5 2 8 11 12
6 2 11 12 15
7 2 12 15 18
8 2 15 18 20
9 2 18 20 24
10 2 20 24 26
11 2 24 26 28
12 3 26 28 31
13 3 28 31 33
14 3 31 33 34
15 3 33 34 36
16 3 34 36 38
17 3 36 38 42
18 1 38 42 44
19 1 42 44 46
20 3 44 46 48
21 3 46 48 51
22 3 48 51 52
23 3 51 52 53
24 1 52 53 56
25 1 53 56 60
26 1 56 60 63
27 1 60 63 65
28 4 63 65 66
29 1 65 66 68
30 1 66 68 70
31 3 68 70 72
32 3 70 72 76
33 3 72 76 77
34 3 76 77 79
35 3 77 79 83
36 3 79 83 84
37 3 83 84 87
38 3 84 87 90
39 3 87 90 92
40 3 90 92 93
41 3 92 93 95
42 1 93 95 96
43 3 95 96 98
44 3 96 98 99
45 3 98 99 103
46 1 99 103 105
47 1 103 105 109
48 1 105 109 111
49 1 109 111 113
50 2 111 113 114
51 2 113 114 116
52 2 114 116 119
53 1 116 119 121
54 1 119 121 124
55 1 121 124 125
56 1 124 125 127
57 1 125 127 129
58 1 127 129 134
59 1 129 134 137
60 4 134 137 139
61 2 137 139 141
62 2 139 141 143
63 2 141 143 145
64 2 143 145 147
65 2 145 147 149
66 3 147 149 153
67 3 149 153 155
68 3 153 155 157
69 3 155 157 159
70 5 157 159 161
71 5 159 161 164
72 2 161 164 167
73 4 164 167 171
74 4 167 171 173
75 3 171 173 175
76 3 173 175 176
77 3 175 176 178
78 1 176 178 181
79 1 178 181 183
80 1 181 183 185
81 1 183 185 189
82 1 185 189 190
83 1 189 190 191
84 1 190 191 193
85 1 191 193 196
86 1 193 196 199
87 4 196 199 202
88 2 199 202 204
89 2 202 204 206
90 2 204 206 209
91 2 206 209 211
92 2 209 211 213
93 2 211 213 215
94 2 213 215 217
95 2 215 217 218
96 2 217 218 222
97 2 218 222 224
98 2 222 224 227
99 2 224 227 230
100 2 227 230 231
101 2 230 231 233
102 1 231 233 235
103 6 1 2 3
104 6 2 4 5
105 6 4 6 7
106 6 6 8 9
107 6 11 12 13
108 6 12 15 16
109 6 15 18 19
110 6 18 20 21
111 6 20 24 25
112 6 24 26 27
113 6 26 28 29
114 6 28 31 32
115 6 33 34 35
116 6 34 36 37
117 6 36 38 39
118 6 38 42 43
119 6 42 44 45
120 6 44 46 47
121 6 46 48 49
122 6 52 53 54
123 6 53 56 57
124 6 56 60 61
125 6 60 63 64
126 6 65 66 67
127 6 66 68 69
128 6 68 70 71
129 6 70 72 73
130 6 76 77 78
131 6 77 79 80
132 6 83 84 85
133 6 84 87 88
134 6 87 90 91
135 6 92 93 94
136 6 95 96 97
137 6 98 99 100
138 6 99 103 104
139 6 103 105 106
140 6 105 109 110
141 6 109 111 112
142 6 113 114 115
143 6 114 116 117
144 6 116 119 120
145 6 119 121 122
146 6 124 125 126
147 6 125 127 128
148 6 127 129 130
149 6 129 134 135
150 6 134 137 138
151 6 137 139 140
152 6 139 141 142
153 6 141 143 144
154 6 143 145 146
155 6 145 147 148
156 6 147 149 150
157 6 149 153 154
158 6 153 155 156
159 6 155 157 158
160 6 157 159 160
161 6 159 161 162
162 6 161 164 165
163 6 164 167 168
164 6 167 171 172
165 6 171 173 174
166 6 175 176 177
167 6 176 178 179
168 6 178 181 182
169 6 181 183 184
170 6 183 185 186
171 6 190 191 192
172 6 191 193 194
173 6 193 196 197
174 6 196 199 200
175 6 199 202 203
176 6 202 204 205
177 6 204 206 207
178 6 206 209 210
179 6 209 211 212
180 6 211 213 214
181 6 213 215 216
182 6 217 218 219
183 6 218 222 223
184 6 222 224 225
185 6 224 227 228
186 6 230 231 232
187 6 231 233 234
188 6 233 235 236
189 7 8 9 10
190 7 12 13 14
191 7 15 16 17
192 8 20 21 22
193 8 20 21 23
194 7 28 29 30
195 8 38 39 40
196 8 38 39 41
197 7 48 49 50
198 7 53 54 55
199 8 56 57 58
200 8 56 57 59
201 7 60 61 62
202 8 72 73 74
203 8 72 73 75
204 8 79 80 81
205 8 79 80 82
206 7 84 85 86
207 7 87 88 89
208 8 99 100 101
209 8 99 100 102
210 8 105 106 107
211 8 105 106 108
212 7 116 117 118
213 7 121 122 123
214 9 129 130 131
215 10 129 130 132
216 7 134 135 136
217 8 149 150 151
218 8 149 150 152
219 7 161 162 163
220 7 164 165 166
221 8 167 168 169
222 8 167 168 170
223 7 178 179 180
224 8 185 186 187
225 8 185 186 188
226 7 193 194 195
227 7 196 197 198
228 7 199 200 201
229 7 206 207 208
230 8 218 219 220
231 8 218 219 221
232 7 224 225 226
233 7 227 228 229

Dihedrals

1 1 4 6 8 11
2 1 6 8 11 12
3 1 8 11 12 15
4 1 11 12 15 18
5 1 12 15 18 20
6 1 15 18 20 24
7 1 18 20 24 26
8 1 20 24 26 28
9 1 111 113 114 116
10 1 113 114 116 119
11 1 137 139 141 143
12 1 139 141 143 145
13 1 141 143 145 147
14 1 143 145 147 149
15 1 159 161 164 167
16 1 199 202 204 206
17 1 202 204 206 209
18 1 204 206 209 211
19 1 206 209 211 213
20 1 209 211 213 215
21 1 211 213 215 217
22 1 213 215 217 218
23 1 215 217 218 222
24 1 217 218 222 224
25 1 218 222 224 227
26 1 222 224 227 230
27 1 224 227 230 231
28 1 227 230 231 233

Impropers

1 1 20 22 23 21
2 1 38 40 41 39
3 1 56 58 59 57
4 1 72 74 75 73
5 1 79 81 82 80
6 1 99 101 102 100
7 1 105 107 108 106
8 1 129 131 132 130
9 2 130 131 133 132
10 1 149 151 152 150
11 1 167 169 170 168
12 1 185 187 188 186
13 1 218 220 221 219

