comment

236 atoms
248 bonds
233 angles
28 dihedrals
13 impropers

17 atom types
17 bond types
10 angle types
1 dihedral types
2 improper types

-40.5 40.5 xlo xhi
-40.5 40.5 ylo yhi
-190.0 190.0 zlo zhi

Masses

1 72.0
2 72.0
3 72.0
4 72.0
5 72.0
6 72.0
7 72.0
8 72.0
9 72.0
10 45.0
11 72.0
12 72.0
13 72.0
14 45.0
15 45.0
16 72.0
17 45.0

PairIJ Coeffs

1 1 1.19503 4.699999999999999
1 2 1.3384336 4.699999999999999
1 3 1.3384336 4.699999999999999
1 4 0.956024 4.699999999999999
1 5 0.478012 4.699999999999999
1 6 0.5497137999999999 4.699999999999999
1 7 0.836521 4.699999999999999
1 8 0.478012 4.699999999999999
1 9 1.19503 4.699999999999999
1 10 0.7409186 4.699999999999999
1 11 1.3384336 4.699999999999999
1 12 1.19503 4.699999999999999
1 13 0.7409186 4.699999999999999
1 14 0.6453162 4.699999999999999
1 15 1.19503 4.699999999999999
1 16 1.19503 4.699999999999999
1 17 0.956024 4.699999999999999
2 2 1.3384336 4.699999999999999
2 3 1.3384336 4.699999999999999
2 4 1.19503 4.699999999999999
2 5 0.5497137999999999 4.699999999999999
2 6 0.6453162 4.699999999999999
2 7 0.836521 4.699999999999999
2 8 0.478012 4.699999999999999
2 9 1.19503 4.699999999999999
2 10 0.7409186 4.699999999999999
2 11 1.3384336 4.699999999999999
2 12 1.19503 4.699999999999999
2 13 0.7409186 4.699999999999999
2 14 0.6453162 4.699999999999999
2 15 1.3384336 4.699999999999999
2 16 1.3384336 4.699999999999999
2 17 1.19503 4.699999999999999
3 3 1.19503 4.699999999999999
3 4 1.19503 4.699999999999999
3 5 0.478012 4.699999999999999
3 6 0.5497137999999999 4.699999999999999
3 7 0.836521 4.699999999999999
3 8 0.478012 4.699999999999999
3 9 0.956024 4.699999999999999
3 10 0.7409186 4.699999999999999
3 11 1.3384336 4.699999999999999
3 12 1.19503 4.699999999999999
3 13 0.7409186 4.699999999999999
3 14 0.6453162 4.699999999999999
3 15 1.19503 4.699999999999999
3 16 1.19503 4.699999999999999
3 17 1.19503 4.699999999999999
4 4 0.956024 4.699999999999999
4 5 0.6453162 4.699999999999999
4 6 0.6453162 4.699999999999999
4 7 0.836521 4.699999999999999
4 8 0.6453162 4.699999999999999
4 9 1.075527 4.699999999999999
4 10 0.836521 4.699999999999999
4 11 0.956024 4.699999999999999
4 12 1.075527 4.699999999999999
4 13 0.836521 4.699999999999999
4 14 0.7409186 4.699999999999999
4 15 1.075527 4.699999999999999
4 16 1.075527 4.699999999999999
4 17 0.956024 4.699999999999999
5 5 0.836521 4.699999999999999
5 6 0.836521 4.699999999999999
5 7 0.7409186 4.699999999999999
5 8 0.836521 4.699999999999999
5 9 0.6453162 4.699999999999999
5 10 0.7409186 4.699999999999999
5 11 0.5497137999999999 4.699999999999999
5 12 0.6453162 4.699999999999999
5 13 0.7409186 4.699999999999999
5 14 0.7409186 4.699999999999999
5 15 0.7409186 4.699999999999999
5 16 0.7409186 4.699999999999999
5 17 0.6453162 4.699999999999999
6 6 0.836521 4.699999999999999
6 7 0.836521 4.699999999999999
6 8 0.836521 4.699999999999999
6 9 0.6453162 4.699999999999999
6 10 0.836521 4.699999999999999
6 11 0.6453162 4.699999999999999
6 12 0.6453162 4.699999999999999
6 13 0.836521 4.699999999999999
6 14 0.836521 4.699999999999999
6 15 0.836521 4.699999999999999
6 16 0.836521 4.699999999999999
6 17 0.6453162 4.699999999999999
7 7 0.836521 4.699999999999999
7 8 0.6453162 4.699999999999999
7 9 0.836521 4.699999999999999
7 10 0.836521 4.699999999999999
7 11 0.836521 4.699999999999999
7 12 0.836521 4.699999999999999
7 13 0.836521 4.699999999999999
7 14 0.836521 4.699999999999999
7 15 0.956024 4.699999999999999
7 16 0.956024 4.699999999999999
7 17 0.836521 4.699999999999999
8 8 0.836521 4.699999999999999
8 9 0.6453162 4.699999999999999
8 10 0.7409186 4.699999999999999
8 11 0.478012 4.699999999999999
8 12 0.6453162 4.699999999999999
8 13 0.7409186 4.699999999999999
8 14 0.7409186 4.699999999999999
8 15 0.6453162 4.699999999999999
8 16 0.6453162 4.699999999999999
8 17 0.6453162 4.699999999999999
9 9 0.956024 4.699999999999999
9 10 0.836521 4.699999999999999
9 11 0.956024 4.699999999999999
9 12 1.075527 4.699999999999999
9 13 0.836521 4.699999999999999
9 14 0.7409186 4.699999999999999
9 15 1.075527 4.699999999999999
9 16 1.075527 4.699999999999999
9 17 1.075527 4.699999999999999
10 10 0.62739075 4.3
10 11 0.7409186 4.699999999999999
10 12 0.836521 4.699999999999999
10 13 0.836521 4.699999999999999
10 14 0.62739075 4.3
10 15 0.62739075 4.3
10 16 0.836521 4.699999999999999
10 17 0.62739075 4.3
11 11 1.19503 4.699999999999999
11 12 0.956024 4.699999999999999
11 13 0.7409186 4.699999999999999
11 14 0.6453162 4.699999999999999
11 15 1.075527 4.699999999999999
11 16 1.075527 4.699999999999999
11 17 0.956024 4.699999999999999
12 12 1.075527 4.699999999999999
12 13 0.836521 4.699999999999999
12 14 0.7409186 4.699999999999999
12 15 1.075527 4.699999999999999
12 16 1.075527 4.699999999999999
12 17 1.075527 4.699999999999999
13 13 0.836521 4.699999999999999
13 14 0.836521 4.699999999999999
13 15 0.836521 4.699999999999999
13 16 0.836521 4.699999999999999
13 17 0.836521 4.699999999999999
14 14 0.62739075 4.3
14 15 0.62739075 4.3
14 16 0.836521 4.699999999999999
14 17 0.5556889500000001 4.3
15 15 0.80664525 4.3
15 16 1.075527 4.699999999999999
15 17 0.80664525 4.3
16 16 1.075527 4.699999999999999
16 17 1.075527 4.699999999999999
17 17 0.7170179999999999 4.3

Bond Coeffs

1 1.4937875 3.5
2 8.962725 3.2
3 5.97515 4.0
4 5.97515 3.3000000000000003
5 5.97515 2.8000000000000003
6 8.962725 3.1
7 8.962725 3.0
8 5.97515 3.2
9 8.962725 3.3000000000000003
10 5.97515 3.4000000000000004
11 5.97515 3.0
12 2.987575 4.0
13 11.9503 3.3000000000000003
14 11.9503 3.1
15 11.9503 2.6500000000000004
16 11.9503 2.7
17 11.9503 2.6

Angle Coeffs

1 2.39006 127
2 83.6521 96
3 2.39006 100
4 2.39006 130
5 11.9503 98
6 2.987575 100
7 2.987575 180
8 5.97515 150
9 5.97515 210
10 5.97515 90

Dihedral Coeffs

1 95.6024 1 -120 0

Improper Coeffs

1 5.97515 0
2 23.9006 0

Atoms

1 1 1 1.0000 1.2549999 -0.027 -48.818
2 1 2 0.0000 -0.0492642 0.179576 -50.8631
3 1 3 -1.0000 -1.45532 -0.50203496 -53.0925
4 1 4 0.0000 1.84308 2.01931 -54.2463
5 1 5 0.0000 2.61493 0.294425 -56.0949
6 1 4 0.0000 1.58938 5.13478 -54.6545
7 1 3 -1.0000 -1.55554 6.1460204 -56.2392
8 1 4 0.0000 4.16786 6.09611 -56.1782
9 1 6 0.0000 7.16686 4.60031 -55.410698
10 1 1 1.0000 7.49615 2.4058201 -56.876503
11 1 4 0.0000 3.6495 5.03699 -59.710396
12 1 7 0.0000 1.26932 7.2759004 -60.259
13 1 6 0.0000 -1.8471301 6.51698 -61.055298
14 1 1 1.0000 -4.42973 6.3734603 -60.015
15 1 7 0.0000 3.46389 9.60277 -59.4027
16 1 6 0.0000 2.25597 11.143499 -56.714203
17 1 1 1.0000 -0.40473902 10.665501 -55.9365
18 1 7 0.0000 5.6952 8.86148 -61.8993
19 1 8 0.0000 8.21288 7.50886 -60.679497
20 1 9 0.0000 4.13464 9.6751 -64.460304
21 1 10 0.0000 4.6781597 9.44209 -67.654
22 1 10 0.0000 4.8916597 10.1353 -70.3378
23 1 10 0.0000 6.45685 8.46566 -69.481
24 1 9 0.0000 3.48331 12.859499 -63.8563
25 1 5 0.0000 1.24646 14.147 -63.969997
26 1 9 0.0000 6.45968 13.6375 -63.1189
27 1 11 0.0000 6.0369005 17.5797 -65.0889
28 1 9 0.0000 7.8559 13.2407 -65.932495
29 1 6 0.0000 9.68534 10.700199 -65.2928
30 1 1 1.0000 11.4188 9.13883 -64.8251
31 1 12 0.0000 6.80682 14.2617 -68.888405
32 1 13 0.0000 8.80653 14.4215 -71.0475
33 1 7 0.0000 3.8818402 14.5093 -68.839005
34 1 12 0.0000 0.96806896 12.4546 -68.5774
35 1 11 0.0000 -1.5401299 16.1824 -69.122604
36 1 12 0.0000 0.125294 12.1847 -71.7956
37 1 13 0.0000 -0.909847 15.2736 -71.6634
38 1 2 0.0000 -0.518991 8.53794 -71.4953
39 1 14 0.0000 2.31859 7.59697 -72.715996
40 1 15 0.0000 3.9781098 5.7813797 -72.666306
41 1 15 0.0000 4.08073 7.8435097 -74.3548
42 1 2 0.0000 -4.35995 7.6214404 -71.4759
43 1 16 0.0000 -5.0929804 8.283831 -73.874504
44 1 2 0.0000 -4.43209 7.6977997 -67.944595
45 1 5 0.0000 -3.3695002 5.17968 -67.7721
46 1 2 0.0000 -7.16238 6.90582 -65.2236
47 1 3 -1.0000 -5.78135 9.8961 -62.7358
48 1 12 0.0000 -11.2425995 3.54442 -64.264
49 1 6 0.0000 -11.9985 2.31104 -61.521603
50 1 1 1.0000 -11.5431 1.34544 -58.5549
51 1 12 0.0000 -12.2338 5.59705 -66.852196
52 1 2 0.0000 -9.56553 7.5040603 -67.0885
53 1 2 0.0000 -10.3188 11.149799 -66.162
54 1 6 0.0000 -10.524799 9.53306 -62.948997
55 1 1 1.0000 -9.608749 7.7106 -60.8351
56 1 2 0.0000 -9.2126 12.7536 -69.6738
57 1 14 0.0000 -10.074901 10.416699 -71.5868
58 1 15 0.0000 -9.8185005 7.7876596 -72.3865
59 1 15 0.0000 -11.9963 8.35034 -71.568695
60 1 2 0.0000 -5.56272 13.2742 -71.8259
61 1 6 0.0000 -4.60381 12.128201 -68.9259
62 1 1 1.0000 -3.86017 12.680599 -66.0699
63 1 2 0.0000 -3.5425699 12.6045 -75.9607
64 1 16 0.0000 -3.7065198 15.030299 -76.5721
65 1 2 0.0000 -1.16207 10.6566 -76.3668
66 1 11 0.0000 -0.211914 6.95723 -77.0802
67 1 6 0.0000 1.4339299 6.171 -79.355896
68 1 2 0.0000 -1.5452001 4.43211 -75.1168
69 1 2 0.0000 -4.04188 3.43303 -77.4116
70 1 2 0.0000 -2.38031 2.36937 -72.5994
71 1 8 0.0000 -0.216 2.42552 -70.0046
72 1 12 0.0000 -6.02566 2.44696 -74.3198
73 1 14 0.0000 -7.09387 3.4272501 -71.6081
74 1 15 0.0000 -9.50318 3.7785301 -70.9233
75 1 15 0.0000 -7.60031 3.14796 -69.1623
76 1 12 0.0000 -7.59373 -1.25882 -73.6009
77 1 2 0.0000 -5.27282 -2.4775 -71.0856
78 1 8 0.0000 -4.02853 -0.78323793 -68.5749
79 1 12 0.0000 -6.16266 -5.75099 -70.268005
80 1 10 0.0000 -5.35874 -6.11642 -67.297104
81 1 10 0.0000 -3.67614 -5.48284 -65.3229
82 1 10 0.0000 -5.7404203 -7.02045 -64.8681
83 1 12 0.0000 -5.48818 -8.36886 -72.760605
84 1 2 0.0000 -5.56288 -6.9667397 -76.199196
85 1 7 0.0000 -4.0717 -4.36104 -75.5123
86 1 1 1.0000 -3.33356 -1.31765 -75.6651
87 1 2 0.0000 -2.8704 -7.49644 -79.2269
88 1 6 0.0000 -0.388293 -8.943979 -80.479004
89 1 1 1.0000 1.1233499 -8.78375 -83.095505
90 1 12 0.0000 -1.96068 -3.7399797 -79.9234
91 1 16 0.0000 0.37204897 -3.74341 -78.730896
92 1 12 0.0000 -5.3328104 -3.49852 -81.230606
93 1 2 0.0000 -6.6175504 -0.576061 -79.3963
94 1 11 0.0000 -8.92741 -3.6543598 -77.7685
95 1 11 0.0000 -8.6197195 1.08856 -79.099495
96 1 7 0.0000 -10.4664 4.0574603 -76.754295
97 1 6 0.0000 -12.1379 2.4830701 -74.8351
98 1 12 0.0000 -8.37942 6.8487697 -77.3305
99 1 2 0.0000 -8.2934 5.15652 -80.9917
100 1 10 0.0000 -7.17952 7.72234 -82.9801
101 1 10 0.0000 -5.86997 8.38336 -85.2339
102 1 10 0.0000 -7.0076103 10.2317 -84.0073
103 1 2 0.0000 -5.15158 3.4588 -82.261
104 1 16 0.0000 -5.30325 1.7116799 -83.7372
105 1 2 0.0000 -2.21418 5.68356 -82.751396
106 1 14 0.0000 -2.68717 8.33769 -81.1438
107 1 14 0.0000 -4.59863 8.96372 -79.4265
108 1 15 0.0000 -3.68188 10.8724 -81.2661
109 1 2 0.0000 -1.52003 4.63747 -85.9898
110 1 16 0.0000 -2.2523599 5.75594 -88.1081
111 1 4 0.0000 1.3923 2.99828 -85.9583
112 1 3 -1.0000 2.62211 1.28294 -88.2124
113 1 7 0.0000 2.57843 2.24227 -83.0813
114 1 12 0.0000 0.0234125 0.439093 -82.0034
115 1 2 0.0000 0.027493399 1.74784 -79.0913
116 1 12 0.0000 -0.0183284 -2.03872 -84.1269
117 1 6 0.0000 -2.22536 -0.97285396 -86.3674
118 1 1 1.0000 -1.8935 0.17550799 -88.78371
119 1 9 0.0000 3.00171 -3.28369 -83.4355
120 1 2 0.0000 4.24094 -3.77733 -86.3954
121 1 2 0.0000 4.83436 -4.83219 -81.4995
122 1 6 0.0000 8.37229 -4.39355 -81.1125
123 1 1 1.0000 10.457601 -5.2374296 -78.8969
124 1 2 0.0000 4.48263 -7.0654497 -79.2985
125 1 2 0.0000 2.26503 -7.92268 -76.92
126 1 8 0.0000 2.47892 -10.821199 -76.497505
127 1 2 0.0000 -0.552374 -8.15731 -73.9707
128 1 16 0.0000 -1.70404 -10.2748 -75.2207
129 1 2 0.0000 -1.21297 -8.16168 -70.1568
130 1 14 0.0000 -1.30979 -4.8064 -70.3961
131 1 17 0.0000 -0.350592 -2.41427 -71.581
132 1 10 0.0000 0.191475 -4.85635 -72.979294
133 1 10 0.0000 1.21955 -2.7102199 -73.7855
134 1 2 0.0000 0.261438 -8.4841 -67.549904
135 1 6 0.0000 2.39664 -11.0192 -67.529205
136 1 1 1.0000 3.9095602 -11.588201 -65.1967
137 1 4 0.0000 2.2702699 -6.33327 -66.5567
138 1 3 -1.0000 4.9228296 -7.66859 -63.326103
139 1 4 0.0000 5.02485 -7.54883 -67.9169
140 1 3 -1.0000 5.6953697 -7.8071203 -63.386597
141 1 4 0.0000 4.49145 -6.23353 -70.9283
142 1 16 0.0000 4.35751 -8.36461 -72.3984
143 1 12 0.0000 4.44847 -3.10955 -69.8731
144 1 8 0.0000 3.7235901 -0.0350961 -69.8693
145 1 9 0.0000 7.72193 -3.19306 -68.7495
146 1 13 0.0000 9.92644 -6.22538 -67.0718
147 1 9 0.0000 8.83286 -3.53377 -71.5732
148 1 3 -1.0000 12.0041 -3.66251 -74.661
149 1 9 0.0000 7.5791197 -0.564316 -72.7746
150 1 14 0.0000 5.07172 0.999019 -74.3459
151 1 14 0.0000 4.07156 2.83725 -75.867096
152 1 15 0.0000 2.31497 1.5243199 -74.4592
153 1 12 0.0000 9.31825 1.63235 -71.1042
154 1 8 0.0000 7.13305 3.45405 -69.645
155 1 12 0.0000 12.0503 0.905323 -72.047
156 1 3 -1.0000 15.8076 0.327609 -70.8107
157 1 2 0.0000 13.0269 3.2593598 -73.818
158 1 2 0.0000 15.9769 4.17623 -74.1719
159 1 7 0.0000 10.0651 3.45469 -75.4644
160 1 6 0.0000 8.432819 5.63937 -74.2744
161 1 12 0.0000 11.038 3.28334 -78.4364
162 1 6 0.0000 13.0648 6.28096 -78.9877
163 1 1 1.0000 12.003201 8.2346 -77.6184
164 1 12 0.0000 11.442699 -0.0630825 -78.4674
165 1 6 0.0000 14.6101 -0.456129 -77.6175
166 1 1 1.0000 15.531401 -0.812062 -75.0466
167 1 12 0.0000 8.5241 -0.731668 -77.714905
168 1 14 0.0000 6.67248 -3.25035 -76.7697
169 1 14 0.0000 5.17667 -3.87293 -74.959305
170 1 15 0.0000 6.9228296 -5.3743896 -75.6265
171 1 2 0.0000 6.3702297 0.702122 -79.8491
172 1 8 0.0000 3.9638 -0.861927 -79.1787
173 1 7 0.0000 6.55994 -0.0355552 -83.056496
174 1 6 0.0000 8.77573 -1.06779 -84.957306
175 1 12 0.0000 9.06367 3.35504 -82.79021
176 1 2 0.0000 6.6515303 4.6219 -80.7303
177 1 16 0.0000 7.03407 6.4320803 -78.933304
178 1 2 0.0000 4.49852 6.55791 -83.315094
179 1 6 0.0000 6.52211 4.98115 -85.471
180 1 1 1.0000 6.96908 2.62804 -87.323105
181 1 2 0.0000 2.2146502 8.63907 -83.3582
182 1 13 0.0000 1.88377 8.61998 -86.9083
183 1 2 0.0000 2.1832 11.1477995 -81.0582
184 1 8 0.0000 1.26135 14.1582 -80.8642
185 1 2 0.0000 4.41782 11.0534 -77.9535
186 1 10 0.0000 3.53201 13.6765 -76.5926
187 1 10 0.0000 4.05333 15.6978 -75.5233
188 1 10 0.0000 1.42537 14.8203 -75.8432
189 1 11 0.0000 7.5704803 10.7259 -76.497795
190 1 2 0.0000 8.76596 10.563499 -73.5504
191 1 2 0.0000 11.160999 7.84289 -70.836
192 1 8 0.0000 12.600401 10.4793 -70.022896
193 1 2 0.0000 11.9853 5.12341 -68.3126
194 1 6 0.0000 14.784201 4.61094 -69.5342
195 1 1 1.0000 16.839 3.83417 -68.0419
196 1 2 0.0000 15.433701 1.40818 -65.844
197 1 6 0.0000 17.9447 2.69736 -63.603302
198 1 1 1.0000 17.453999 3.82607 -61.0425
199 1 4 0.0000 14.521199 -1.03899 -63.4296
200 1 6 0.0000 11.7383 -3.77706 -62.220997
201 1 1 1.0000 8.59235 -4.4074802 -61.8762
202 1 4 0.0000 12.9609 0.817998 -61.5068
203 1 16 0.0000 11.9248 0.226999 -59.047897
204 1 4 0.0000 12.2501 3.09053 -63.874504
205 1 3 -1.0000 14.8517 6.1176996 -64.344604
206 1 4 0.0000 10.370701 1.06918 -65.7228
207 1 7 0.0000 11.957701 -1.49227 -67.582306
208 1 1 1.0000 13.4473 -3.5156 -70.0983
209 1 7 0.0000 8.86894 -0.154926 -63.1874
210 1 3 -1.0000 6.80311 -1.35437 -59.306503
211 1 7 0.0000 7.27524 2.5241199 -62.2484
212 1 3 -1.0000 6.1757803 -0.52865 -59.8958
213 1 7 0.0000 5.62665 2.78722 -65.219406
214 1 8 0.0000 7.03996 5.63947 -65.7371
215 1 7 0.0000 4.24272 0.122812994 -64.815796
216 1 8 0.0000 5.28773 -2.9135299 -65.0027
217 1 13 0.0000 2.67204 1.10239 -62.2924
218 1 7 0.0000 0.516402 2.99307 -63.7459
219 1 14 0.0000 1.8656001 5.47947 -65.5961
220 1 14 0.0000 2.605 5.9372096 -68.1195
221 1 15 0.0000 0.75829995 7.5897303 -66.9375
222 1 7 0.0000 -0.734568 0.814288 -65.67
223 1 8 0.0000 0.741136 -2.05228 -67.0213
224 1 7 0.0000 -1.74822 -1.14109 -63.127598
225 1 6 0.0000 0.736596 -3.3872602 -62.165398
226 1 1 1.0000 3.3970401 -4.03938 -61.045197
227 1 9 0.0000 -3.3641 1.35431 -61.9467
228 1 6 0.0000 -2.94447 1.67994 -58.913696
229 1 1 1.0000 -4.03081 2.2024999 -56.2569
230 1 7 0.0000 -5.5356097 2.0605102 -64.463104
231 1 9 0.0000 -6.91876 -0.751348 -64.2131
232 1 16 0.0000 -8.38375 -0.99252594 -66.605804
233 1 9 0.0000 -7.8860803 -0.432446 -60.9991
234 1 2 0.0000 -6.54337 -2.08699 -58.8036
235 1 3 -1.0000 -7.48002 2.9686098 -60.2577
236 1 3 -1.0000 -8.29585 4.62575 -57.5061

Bonds

1 1 1 2
2 1 31 33
3 1 33 34
4 1 34 36
5 1 36 38
6 1 38 42
7 1 42 44
8 1 44 46
9 1 46 48
10 1 48 51
11 1 51 52
12 1 52 53
13 1 53 56
14 1 56 60
15 1 60 63
16 1 63 65
17 1 65 66
18 1 66 68
19 1 68 70
20 1 70 72
21 1 72 76
22 1 76 77
23 1 77 79
24 1 79 83
25 1 83 84
26 1 84 87
27 1 87 90
28 1 90 92
29 1 92 93
30 1 93 95
31 1 95 96
32 1 96 98
33 1 98 99
34 1 99 103
35 1 103 105
36 1 105 109
37 1 121 124
38 1 124 125
39 1 125 127
40 1 127 129
41 1 129 134
42 1 153 155
43 1 155 157
44 1 171 173
45 1 173 175
46 1 175 176
47 1 176 178
48 1 178 181
49 1 181 183
50 1 183 185
51 1 185 189
52 1 189 190
53 1 190 191
54 1 191 193
55 1 193 196
56 2 2 3
57 3 6 7
58 4 8 9
59 5 9 10
60 4 12 13
61 5 13 14
62 4 15 16
63 5 16 17
64 6 20 21
65 3 26 27
66 4 28 29
67 5 29 30
68 6 31 32
69 3 34 35
70 6 36 37
71 2 38 39
72 3 46 47
73 4 48 49
74 5 49 50
75 4 53 54
76 5 54 55
77 2 56 57
78 4 60 61
79 5 61 62
80 7 66 67
81 8 68 69
82 9 70 71
83 2 72 73
84 9 77 78
85 6 79 80
86 4 84 85
87 10 85 86
88 4 87 88
89 5 88 89
90 3 93 94
91 7 96 97
92 6 99 100
93 8 105 106
94 2 111 112
95 8 114 115
96 4 116 117
97 5 117 118
98 8 119 120
99 4 121 122
100 5 122 123
101 11 129 130
102 4 134 135
103 5 135 136
104 3 137 138
105 3 139 140
106 9 143 144
107 12 145 146
108 3 147 148
109 8 149 150
110 9 153 154
111 3 155 156
112 8 157 158
113 7 159 160
114 4 161 162
115 5 162 163
116 4 164 165
117 5 165 166
118 8 167 168
119 7 173 174
120 4 178 179
121 5 179 180
122 12 181 182
123 6 185 186
124 4 193 194
125 5 194 195
126 4 196 197
127 5 197 198
128 4 199 200
129 5 200 201
130 3 204 205
131 4 206 207
132 10 207 208
133 3 209 210
134 2 211 212
135 9 213 214
136 8 218 219
137 9 222 223
138 4 224 225
139 5 225 226
140 4 227 228
141 5 228 229
142 8 233 234
143 3 235 236
144 13 2 4
145 14 4 6
146 14 6 8
147 14 8 11
148 14 11 12
149 14 12 15
150 14 15 18
151 14 18 20
152 14 20 24
153 14 24 26
154 14 26 28
155 13 28 31
156 13 109 111
157 14 111 113
158 14 113 114
159 14 114 116
160 14 116 119
161 13 119 121
162 13 134 137
163 14 137 139
164 14 139 141
165 14 141 143
166 14 143 145
167 14 145 147
168 14 147 149
169 13 149 153
170 13 157 159
171 14 159 161
172 14 161 164
173 14 164 167
174 13 167 171
175 13 196 199
176 14 199 202
177 14 202 204
178 14 204 206
179 14 206 209
180 14 209 211
181 14 211 213
182 14 213 215
183 14 215 217
184 14 217 218
185 14 218 222
186 14 222 224
187 14 224 227
188 14 227 230
189 14 230 231
190 14 231 233
191 13 233 235
192 15 4 5
193 14 18 19
194 16 21 22
195 16 21 23
196 16 22 23
197 15 24 25
198 16 39 40
199 16 39 41
200 16 40 41
201 17 42 43
202 15 44 45
203 16 57 58
204 16 57 59
205 16 58 59
206 17 63 64
207 16 73 74
208 16 73 75
209 16 74 75
210 16 80 81
211 16 80 82
212 16 81 82
213 17 90 91
214 16 100 101
215 16 100 102
216 16 101 102
217 17 103 104
218 16 106 107
219 16 106 108
220 16 107 108
221 17 109 110
222 14 125 126
223 17 127 128
224 16 130 131
225 16 130 132
226 16 131 132
227 16 131 133
228 16 132 133
229 17 141 142
230 16 150 151
231 16 150 152
232 16 151 152
233 16 168 169
234 16 168 170
235 16 169 170
236 14 171 172
237 17 176 177
238 14 183 184
239 16 186 187
240 16 186 188
241 16 187 188
242 14 191 192
243 17 202 203
244 14 215 216
245 16 219 220
246 16 219 221
247 16 220 221
248 17 231 232

Angles

1 1 1 2 4
2 1 2 4 6
3 2 4 6 8
4 2 6 8 11
5 2 8 11 12
6 2 11 12 15
7 2 12 15 18
8 2 15 18 20
9 2 18 20 24
10 2 20 24 26
11 2 24 26 28
12 3 26 28 31
13 3 28 31 33
14 3 31 33 34
15 3 33 34 36
16 3 34 36 38
17 3 36 38 42
18 1 38 42 44
19 1 42 44 46
20 3 44 46 48
21 3 46 48 51
22 3 48 51 52
23 3 51 52 53
24 1 52 53 56
25 1 53 56 60
26 1 56 60 63
27 1 60 63 65
28 4 63 65 66
29 1 65 66 68
30 1 66 68 70
31 3 68 70 72
32 3 70 72 76
33 3 72 76 77
34 3 76 77 79
35 3 77 79 83
36 3 79 83 84
37 3 83 84 87
38 3 84 87 90
39 3 87 90 92
40 3 90 92 93
41 3 92 93 95
42 1 93 95 96
43 3 95 96 98
44 3 96 98 99
45 3 98 99 103
46 1 99 103 105
47 1 103 105 109
48 1 105 109 111
49 1 109 111 113
50 2 111 113 114
51 2 113 114 116
52 2 114 116 119
53 1 116 119 121
54 1 119 121 124
55 1 121 124 125
56 1 124 125 127
57 1 125 127 129
58 1 127 129 134
59 1 129 134 137
60 4 134 137 139
61 2 137 139 141
62 2 139 141 143
63 2 141 143 145
64 2 143 145 147
65 2 145 147 149
66 3 147 149 153
67 3 149 153 155
68 3 153 155 157
69 3 155 157 159
70 5 157 159 161
71 5 159 161 164
72 2 161 164 167
73 4 164 167 171
74 4 167 171 173
75 3 171 173 175
76 3 173 175 176
77 3 175 176 178
78 1 176 178 181
79 1 178 181 183
80 1 181 183 185
81 1 183 185 189
82 1 185 189 190
83 1 189 190 191
84 1 190 191 193
85 1 191 193 196
86 1 193 196 199
87 4 196 199 202
88 2 199 202 204
89 2 202 204 206
90 2 204 206 209
91 2 206 209 211
92 2 209 211 213
93 2 211 213 215
94 2 213 215 217
95 2 215 217 218
96 2 217 218 222
97 2 218 222 224
98 2 222 224 227
99 2 224 227 230
100 2 227 230 231
101 2 230 231 233
102 1 231 233 235
103 6 1 2 3
104 6 2 4 5
105 6 4 6 7
106 6 6 8 9
107 6 11 12 13
108 6 12 15 16
109 6 15 18 19
110 6 18 20 21
111 6 20 24 25
112 6 24 26 27
113 6 26 28 29
114 6 28 31 32
115 6 33 34 35
116 6 34 36 37
117 6 36 38 39
118 6 38 42 43
119 6 42 44 45
120 6 44 46 47
121 6 46 48 49
122 6 52 53 54
123 6 53 56 57
124 6 56 60 61
125 6 60 63 64
126 6 65 66 67
127 6 66 68 69
128 6 68 70 71
129 6 70 72 73
130 6 76 77 78
131 6 77 79 80
132 6 83 84 85
133 6 84 87 88
134 6 87 90 91
135 6 92 93 94
136 6 95 96 97
137 6 98 99 100
138 6 99 103 104
139 6 103 105 106
140 6 105 109 110
141 6 109 111 112
142 6 113 114 115
143 6 114 116 117
144 6 116 119 120
145 6 119 121 122
146 6 124 125 126
147 6 125 127 128
148 6 127 129 130
149 6 129 134 135
150 6 134 137 138
151 6 137 139 140
152 6 139 141 142
153 6 141 143 144
154 6 143 145 146
155 6 145 147 148
156 6 147 149 150
157 6 149 153 154
158 6 153 155 156
159 6 155 157 158
160 6 157 159 160
161 6 159 161 162
162 6 161 164 165
163 6 164 167 168
164 6 167 171 172
165 6 171 173 174
166 6 175 176 177
167 6 176 178 179
168 6 178 181 182
169 6 181 183 184
170 6 183 185 186
171 6 190 191 192
172 6 191 193 194
173 6 193 196 197
174 6 196 199 200
175 6 199 202 203
176 6 202 204 205
177 6 204 206 207
178 6 206 209 210
179 6 209 211 212
180 6 211 213 214
181 6 213 215 216
182 6 217 218 219
183 6 218 222 223
184 6 222 224 225
185 6 224 227 228
186 6 230 231 232
187 6 231 233 234
188 6 233 235 236
189 7 8 9 10
190 7 12 13 14
191 7 15 16 17
192 8 20 21 22
193 8 20 21 23
194 7 28 29 30
195 8 38 39 40
196 8 38 39 41
197 7 48 49 50
198 7 53 54 55
199 8 56 57 58
200 8 56 57 59
201 7 60 61 62
202 8 72 73 74
203 8 72 73 75
204 8 79 80 81
205 8 79 80 82
206 7 84 85 86
207 7 87 88 89
208 8 99 100 101
209 8 99 100 102
210 8 105 106 107
211 8 105 106 108
212 7 116 117 118
213 7 121 122 123
214 9 129 130 131
215 10 129 130 132
216 7 134 135 136
217 8 149 150 151
218 8 149 150 152
219 7 161 162 163
220 7 164 165 166
221 8 167 168 169
222 8 167 168 170
223 7 178 179 180
224 8 185 186 187
225 8 185 186 188
226 7 193 194 195
227 7 196 197 198
228 7 199 200 201
229 7 206 207 208
230 8 218 219 220
231 8 218 219 221
232 7 224 225 226
233 7 227 228 229

Dihedrals

1 1 4 6 8 11
2 1 6 8 11 12
3 1 8 11 12 15
4 1 11 12 15 18
5 1 12 15 18 20
6 1 15 18 20 24
7 1 18 20 24 26
8 1 20 24 26 28
9 1 111 113 114 116
10 1 113 114 116 119
11 1 137 139 141 143
12 1 139 141 143 145
13 1 141 143 145 147
14 1 143 145 147 149
15 1 159 161 164 167
16 1 199 202 204 206
17 1 202 204 206 209
18 1 204 206 209 211
19 1 206 209 211 213
20 1 209 211 213 215
21 1 211 213 215 217
22 1 213 215 217 218
23 1 215 217 218 222
24 1 217 218 222 224
25 1 218 222 224 227
26 1 222 224 227 230
27 1 224 227 230 231
28 1 227 230 231 233

Impropers

1 1 20 22 23 21
2 1 38 40 41 39
3 1 56 58 59 57
4 1 72 74 75 73
5 1 79 81 82 80
6 1 99 101 102 100
7 1 105 107 108 106
8 1 129 131 132 130
9 2 130 131 133 132
10 1 149 151 152 150
11 1 167 169 170 168
12 1 185 187 188 186
13 1 218 220 221 219

