comment

236 atoms
248 bonds
233 angles
28 dihedrals
13 impropers

17 atom types
17 bond types
10 angle types
1 dihedral types
2 improper types

-40.5 40.5 xlo xhi
-40.5 40.5 ylo yhi
-190.0 190.0 zlo zhi

Masses

1 72.0
2 72.0
3 72.0
4 72.0
5 72.0
6 72.0
7 72.0
8 72.0
9 72.0
10 45.0
11 72.0
12 72.0
13 72.0
14 45.0
15 45.0
16 72.0
17 45.0

PairIJ Coeffs

1 1 1.19503 4.699999999999999
1 2 1.3384336 4.699999999999999
1 3 1.3384336 4.699999999999999
1 4 0.956024 4.699999999999999
1 5 0.478012 4.699999999999999
1 6 0.5497137999999999 4.699999999999999
1 7 0.836521 4.699999999999999
1 8 0.478012 4.699999999999999
1 9 1.19503 4.699999999999999
1 10 0.7409186 4.699999999999999
1 11 1.3384336 4.699999999999999
1 12 1.19503 4.699999999999999
1 13 0.7409186 4.699999999999999
1 14 0.6453162 4.699999999999999
1 15 1.19503 4.699999999999999
1 16 1.19503 4.699999999999999
1 17 0.956024 4.699999999999999
2 2 1.3384336 4.699999999999999
2 3 1.3384336 4.699999999999999
2 4 1.19503 4.699999999999999
2 5 0.5497137999999999 4.699999999999999
2 6 0.6453162 4.699999999999999
2 7 0.836521 4.699999999999999
2 8 0.478012 4.699999999999999
2 9 1.19503 4.699999999999999
2 10 0.7409186 4.699999999999999
2 11 1.3384336 4.699999999999999
2 12 1.19503 4.699999999999999
2 13 0.7409186 4.699999999999999
2 14 0.6453162 4.699999999999999
2 15 1.3384336 4.699999999999999
2 16 1.3384336 4.699999999999999
2 17 1.19503 4.699999999999999
3 3 1.19503 4.699999999999999
3 4 1.19503 4.699999999999999
3 5 0.478012 4.699999999999999
3 6 0.5497137999999999 4.699999999999999
3 7 0.836521 4.699999999999999
3 8 0.478012 4.699999999999999
3 9 0.956024 4.699999999999999
3 10 0.7409186 4.699999999999999
3 11 1.3384336 4.699999999999999
3 12 1.19503 4.699999999999999
3 13 0.7409186 4.699999999999999
3 14 0.6453162 4.699999999999999
3 15 1.19503 4.699999999999999
3 16 1.19503 4.699999999999999
3 17 1.19503 4.699999999999999
4 4 0.956024 4.699999999999999
4 5 0.6453162 4.699999999999999
4 6 0.6453162 4.699999999999999
4 7 0.836521 4.699999999999999
4 8 0.6453162 4.699999999999999
4 9 1.075527 4.699999999999999
4 10 0.836521 4.699999999999999
4 11 0.956024 4.699999999999999
4 12 1.075527 4.699999999999999
4 13 0.836521 4.699999999999999
4 14 0.7409186 4.699999999999999
4 15 1.075527 4.699999999999999
4 16 1.075527 4.699999999999999
4 17 0.956024 4.699999999999999
5 5 0.836521 4.699999999999999
5 6 0.836521 4.699999999999999
5 7 0.7409186 4.699999999999999
5 8 0.836521 4.699999999999999
5 9 0.6453162 4.699999999999999
5 10 0.7409186 4.699999999999999
5 11 0.5497137999999999 4.699999999999999
5 12 0.6453162 4.699999999999999
5 13 0.7409186 4.699999999999999
5 14 0.7409186 4.699999999999999
5 15 0.7409186 4.699999999999999
5 16 0.7409186 4.699999999999999
5 17 0.6453162 4.699999999999999
6 6 0.836521 4.699999999999999
6 7 0.836521 4.699999999999999
6 8 0.836521 4.699999999999999
6 9 0.6453162 4.699999999999999
6 10 0.836521 4.699999999999999
6 11 0.6453162 4.699999999999999
6 12 0.6453162 4.699999999999999
6 13 0.836521 4.699999999999999
6 14 0.836521 4.699999999999999
6 15 0.836521 4.699999999999999
6 16 0.836521 4.699999999999999
6 17 0.6453162 4.699999999999999
7 7 0.836521 4.699999999999999
7 8 0.6453162 4.699999999999999
7 9 0.836521 4.699999999999999
7 10 0.836521 4.699999999999999
7 11 0.836521 4.699999999999999
7 12 0.836521 4.699999999999999
7 13 0.836521 4.699999999999999
7 14 0.836521 4.699999999999999
7 15 0.956024 4.699999999999999
7 16 0.956024 4.699999999999999
7 17 0.836521 4.699999999999999
8 8 0.836521 4.699999999999999
8 9 0.6453162 4.699999999999999
8 10 0.7409186 4.699999999999999
8 11 0.478012 4.699999999999999
8 12 0.6453162 4.699999999999999
8 13 0.7409186 4.699999999999999
8 14 0.7409186 4.699999999999999
8 15 0.6453162 4.699999999999999
8 16 0.6453162 4.699999999999999
8 17 0.6453162 4.699999999999999
9 9 0.956024 4.699999999999999
9 10 0.836521 4.699999999999999
9 11 0.956024 4.699999999999999
9 12 1.075527 4.699999999999999
9 13 0.836521 4.699999999999999
9 14 0.7409186 4.699999999999999
9 15 1.075527 4.699999999999999
9 16 1.075527 4.699999999999999
9 17 1.075527 4.699999999999999
10 10 0.62739075 4.3
10 11 0.7409186 4.699999999999999
10 12 0.836521 4.699999999999999
10 13 0.836521 4.699999999999999
10 14 0.62739075 4.3
10 15 0.62739075 4.3
10 16 0.836521 4.699999999999999
10 17 0.62739075 4.3
11 11 1.19503 4.699999999999999
11 12 0.956024 4.699999999999999
11 13 0.7409186 4.699999999999999
11 14 0.6453162 4.699999999999999
11 15 1.075527 4.699999999999999
11 16 1.075527 4.699999999999999
11 17 0.956024 4.699999999999999
12 12 1.075527 4.699999999999999
12 13 0.836521 4.699999999999999
12 14 0.7409186 4.699999999999999
12 15 1.075527 4.699999999999999
12 16 1.075527 4.699999999999999
12 17 1.075527 4.699999999999999
13 13 0.836521 4.699999999999999
13 14 0.836521 4.699999999999999
13 15 0.836521 4.699999999999999
13 16 0.836521 4.699999999999999
13 17 0.836521 4.699999999999999
14 14 0.62739075 4.3
14 15 0.62739075 4.3
14 16 0.836521 4.699999999999999
14 17 0.5556889500000001 4.3
15 15 0.80664525 4.3
15 16 1.075527 4.699999999999999
15 17 0.80664525 4.3
16 16 1.075527 4.699999999999999
16 17 1.075527 4.699999999999999
17 17 0.7170179999999999 4.3

Bond Coeffs

1 1.4937875 3.5
2 8.962725 3.2
3 5.97515 4.0
4 5.97515 3.3000000000000003
5 5.97515 2.8000000000000003
6 8.962725 3.1
7 8.962725 3.0
8 5.97515 3.2
9 8.962725 3.3000000000000003
10 5.97515 3.4000000000000004
11 5.97515 3.0
12 2.987575 4.0
13 11.9503 3.3000000000000003
14 11.9503 3.1
15 11.9503 2.6500000000000004
16 11.9503 2.7
17 11.9503 2.6

Angle Coeffs

1 2.39006 127
2 83.6521 96
3 2.39006 100
4 2.39006 130
5 11.9503 98
6 2.987575 100
7 2.987575 180
8 5.97515 150
9 5.97515 210
10 5.97515 90

Dihedral Coeffs

1 95.6024 1 -120 0

Improper Coeffs

1 5.97515 0
2 23.9006 0

Atoms

1 1 1 1.0000 1.2549999 -0.027 -48.818
2 1 2 0.0000 0.108559996 0.129549 -50.767296
3 1 3 -1.0000 -1.14754 -0.84001696 -53.1773
4 1 4 0.0000 1.9706701 1.91909 -54.2355
5 1 5 0.0000 3.2017202 0.34460002 -55.893
6 1 4 0.0000 1.85636 5.0375996 -54.5643
7 1 3 -1.0000 -1.74139 6.1488905 -55.4674
8 1 4 0.0000 4.48713 5.69062 -56.2202
9 1 6 0.0000 6.93906 4.05589 -54.9741
10 1 1 1.0000 8.21157 2.2316601 -56.5827
11 1 4 0.0000 3.8028402 4.6284 -59.2337
12 1 7 0.0000 1.65776 6.82169 -60.0476
13 1 6 0.0000 -1.58829 6.9105396 -60.8739
14 1 1 1.0000 -4.09984 6.00669 -60.089897
15 1 7 0.0000 3.57622 9.52637 -59.3018
16 1 6 0.0000 2.09268 10.6848 -57.072
17 1 1 1.0000 0.681017 9.88173 -54.454002
18 1 7 0.0000 6.1907 9.1625 -61.413998
19 1 8 0.0000 7.80711 6.7778497 -60.5784
20 1 9 0.0000 4.8115 9.7986 -64.2718
21 1 10 0.0000 5.1995897 9.286591 -67.325806
22 1 10 0.0000 4.61194 9.54219 -70.0077
23 1 10 0.0000 7.09121 9.07495 -69.2718
24 1 9 0.0000 3.7789102 12.582399 -63.7325
25 1 5 0.0000 1.38946 13.9614 -63.2711
26 1 9 0.0000 6.5698395 14.393701 -63.3154
27 1 11 0.0000 4.63245 17.4041 -65.5382
28 1 9 0.0000 8.00403 13.3846 -66.0333
29 1 6 0.0000 9.74759 10.845099 -65.5121
30 1 1 1.0000 11.1106 8.39466 -64.8429
31 1 12 0.0000 7.2493 14.126901 -69.1051
32 1 13 0.0000 8.24617 14.0189 -72.0395
33 1 7 0.0000 3.60415 14.3296 -69.3722
34 1 12 0.0000 1.26894 12.5026 -67.9568
35 1 11 0.0000 -1.6551 15.9971 -68.1068
36 1 12 0.0000 -0.422769 12.4543 -71.040504
37 1 13 0.0000 -0.517734 15.6382 -71.1976
38 1 2 0.0000 -0.792547 9.523479 -70.9838
39 1 14 0.0000 1.18146 7.5433598 -72.1266
40 1 15 0.0000 3.50816 5.62799 -72.5251
41 1 15 0.0000 3.17736 7.7529197 -74.0361
42 1 2 0.0000 -3.5231998 7.73772 -70.7695
43 1 16 0.0000 -4.84348 8.163939 -73.1931
44 1 2 0.0000 -4.11598 6.7670603 -67.3771
45 1 5 0.0000 -3.11072 4.15693 -67.491394
46 1 2 0.0000 -7.16747 6.81131 -65.337
47 1 3 -1.0000 -5.5723 9.56211 -62.7488
48 1 12 0.0000 -10.5295 3.98425 -64.9013
49 1 6 0.0000 -11.5615 3.09806 -62.014397
50 1 1 1.0000 -11.8514 2.17616 -59.085003
51 1 12 0.0000 -12.4868 6.2048297 -66.7973
52 1 2 0.0000 -9.59931 8.23456 -67.1141
53 1 2 0.0000 -10.6187 10.796 -66.2539
54 1 6 0.0000 -10.553101 9.8300705 -62.827
55 1 1 1.0000 -9.26468 7.89114 -60.404602
56 1 2 0.0000 -9.57528 12.9212 -70.4336
57 1 14 0.0000 -10.914201 10.3018 -71.5878
58 1 15 0.0000 -9.11123 8.178431 -72.2378
59 1 15 0.0000 -11.6952 7.7100997 -71.995605
60 1 2 0.0000 -5.76217 12.862901 -71.821396
61 1 6 0.0000 -4.92781 12.0802 -68.4526
62 1 1 1.0000 -3.15348 11.7103 -66.1582
63 1 2 0.0000 -3.7316098 12.3238 -75.1139
64 1 16 0.0000 -3.6162498 14.563101 -76.4592
65 1 2 0.0000 -0.99017 9.73166 -76.052
66 1 11 0.0000 -0.38413 6.4750805 -76.873795
67 1 6 0.0000 1.7369499 5.93409 -79.2828
68 1 2 0.0000 -1.5331 4.37098 -74.811905
69 1 2 0.0000 -4.4200096 3.9831998 -76.5051
70 1 2 0.0000 -2.35468 1.88627 -72.1871
71 1 8 0.0000 0.0364163 2.2983 -70.0793
72 1 12 0.0000 -5.8616695 2.47244 -73.7807
73 1 14 0.0000 -7.07042 3.81427 -71.4231
74 1 15 0.0000 -9.47655 3.94383 -70.4348
75 1 15 0.0000 -7.55665 2.87894 -68.8813
76 1 12 0.0000 -7.33043 -1.15229 -72.9682
77 1 2 0.0000 -5.36381 -2.05872 -70.8918
78 1 8 0.0000 -3.7115898 -1.0329 -68.3069
79 1 12 0.0000 -6.07151 -5.6245704 -70.1709
80 1 10 0.0000 -4.67952 -5.99765 -67.141
81 1 10 0.0000 -3.97642 -5.7438397 -64.594406
82 1 10 0.0000 -6.22078 -6.8695498 -65.1332
83 1 12 0.0000 -5.28432 -7.98886 -72.817795
84 1 2 0.0000 -4.97703 -7.25597 -75.8974
85 1 7 0.0000 -4.22025 -4.02843 -75.4634
86 1 1 1.0000 -4.27026 -1.2485399 -76.6679
87 1 2 0.0000 -3.49695 -8.36205 -78.6909
88 1 6 0.0000 -0.944425 -9.26476 -80.649
89 1 1 1.0000 -0.832662 -11.3393 -82.25
90 1 12 0.0000 -1.76403 -4.27249 -80.034
91 1 16 0.0000 0.00785437 -3.8470302 -78.3762
92 1 12 0.0000 -4.6037 -2.38547 -81.9273
93 1 2 0.0000 -8.22102 -1.2781701 -81.2297
94 1 11 0.0000 -8.99146 -3.5688498 -77.9507
95 1 11 0.0000 -8.7145 1.84762 -77.9519
96 1 7 0.0000 -10.483101 4.44307 -75.7019
97 1 6 0.0000 -12.8071 3.50384 -74.8138
98 1 12 0.0000 -8.457459 6.56623 -77.4759
99 1 2 0.0000 -8.18725 5.10494 -80.4533
100 1 10 0.0000 -7.26592 7.20611 -82.3608
101 1 10 0.0000 -6.2372 7.1006203 -84.6895
102 1 10 0.0000 -6.93644 9.60342 -83.66959
103 1 2 0.0000 -4.80754 3.00097 -81.7231
104 1 16 0.0000 -5.61359 2.4063299 -84.207695
105 1 2 0.0000 -2.51523 5.29408 -82.1432
106 1 14 0.0000 -3.0812001 8.01134 -80.7071
107 1 14 0.0000 -5.1896 9.46555 -79.289696
108 1 15 0.0000 -3.2336 10.6183 -80.8139
109 1 2 0.0000 -1.27527 4.94235 -85.3273
110 1 16 0.0000 -2.45048 6.10524 -87.4873
111 1 4 0.0000 1.61416 3.67107 -85.002
112 1 3 -1.0000 2.15336 1.94979 -88.063095
113 1 7 0.0000 2.27486 2.3903701 -82.3985
114 1 12 0.0000 -0.51192 0.748702 -81.767
115 1 2 0.0000 -0.65741 1.3345499 -78.6602
116 1 12 0.0000 -0.191228 -1.29248 -84.2781
117 1 6 0.0000 -1.99624 -0.86756104 -86.647194
118 1 1 1.0000 -2.2709498 0.66181195 -88.768394
119 1 9 0.0000 2.64951 -2.72293 -83.362305
120 1 2 0.0000 4.52936 -2.62306 -86.1458
121 1 2 0.0000 4.74021 -4.9025197 -81.398094
122 1 6 0.0000 8.11055 -5.43459 -81.134
123 1 1 1.0000 9.912661 -5.77843 -78.9565
124 1 2 0.0000 3.4415798 -7.82874 -80.32561
125 1 2 0.0000 1.9309901 -8.22739 -76.805504
126 1 8 0.0000 3.21475 -10.847599 -76.377304
127 1 2 0.0000 -0.17238301 -8.58517 -73.7629
128 1 16 0.0000 -1.43335 -10.8657 -74.3625
129 1 2 0.0000 -0.7925 -8.37335 -70.078
130 1 14 0.0000 -1.0092701 -5.0579205 -70.6821
131 1 17 0.0000 -0.40688398 -2.85393 -71.795204
132 1 10 0.0000 0.236912 -5.00623 -73.0876
133 1 10 0.0000 0.706999 -2.5582502 -74.0589
134 1 2 0.0000 0.392455 -8.08222 -66.9444
135 1 6 0.0000 2.65099 -10.687799 -67.14
136 1 1 1.0000 3.92348 -11.684999 -64.611
137 1 4 0.0000 2.8305502 -6.24795 -65.8115
138 1 3 -1.0000 5.57221 -7.87672 -62.579697
139 1 4 0.0000 5.35433 -7.37983 -67.4128
140 1 3 -1.0000 6.43225 -8.23062 -63.064598
141 1 4 0.0000 4.4622903 -6.4126997 -70.569
142 1 16 0.0000 5.1483 -8.45109 -72.0136
143 1 12 0.0000 4.58772 -3.25876 -69.661
144 1 8 0.0000 4.04673 -0.223851 -69.9181
145 1 9 0.0000 7.66661 -3.15547 -68.816
146 1 13 0.0000 10.1105 -5.6357903 -66.774704
147 1 9 0.0000 8.82168 -3.65572 -71.574104
148 1 3 -1.0000 11.5506 -3.98155 -74.903404
149 1 9 0.0000 7.84689 -0.543065 -72.917496
150 1 14 0.0000 5.25782 0.904587 -74.3325
151 1 14 0.0000 3.97457 2.74634 -76.1504
152 1 15 0.0000 2.71875 1.72728 -74.4889
153 1 12 0.0000 9.23057 1.74515 -71.2077
154 1 8 0.0000 7.1793003 3.3250098 -69.4899
155 1 12 0.0000 12.9574 1.2504799 -72.389496
156 1 3 -1.0000 16.7501 0.148303 -71.4309
157 1 2 0.0000 12.8406 3.54076 -74.2063
158 1 2 0.0000 15.268801 5.2000303 -74.6883
159 1 7 0.0000 9.8082905 3.43363 -75.3028
160 1 6 0.0000 8.2118 5.7823997 -73.9495
161 1 12 0.0000 10.7864 3.07331 -78.508
162 1 6 0.0000 12.543 6.1089497 -79.3962
163 1 1 1.0000 11.3758 8.48586 -79.517
164 1 12 0.0000 11.632299 0.18925199 -78.4818
165 1 6 0.0000 14.4443 -0.197163 -77.221
166 1 1 1.0000 15.5828 -1.6689899 -75.500496
167 1 12 0.0000 8.62944 -1.11727 -78.0175
168 1 14 0.0000 6.30468 -3.062 -76.880295
169 1 14 0.0000 4.5099697 -3.81874 -75.1211
170 1 15 0.0000 6.5961 -5.4869003 -75.8739
171 1 2 0.0000 6.60527 -0.020247 -80.376396
172 1 8 0.0000 3.93327 -0.97263 -79.0631
173 1 7 0.0000 7.36339 0.086452805 -83.8858
174 1 6 0.0000 9.70105 -1.87701 -84.315
175 1 12 0.0000 8.54127 4.11267 -82.8418
176 1 2 0.0000 6.3181696 4.81467 -80.84621
177 1 16 0.0000 6.5736504 6.09165 -78.8686
178 1 2 0.0000 4.95302 6.76039 -83.0665
179 1 6 0.0000 5.94818 5.5205398 -85.8716
180 1 1 1.0000 6.37537 3.34084 -87.47209
181 1 2 0.0000 1.8092599 8.69321 -83.3575
182 1 13 0.0000 2.21836 7.9122 -87.644196
183 1 2 0.0000 2.26655 11.1869 -80.673
184 1 8 0.0000 0.296919 13.625401 -79.9489
185 1 2 0.0000 4.4588 11.2186 -77.7884
186 1 10 0.0000 3.69636 13.918 -76.1369
187 1 10 0.0000 3.7652702 15.2638 -74.0063
188 1 10 0.0000 1.6430999 15.6394005 -75.4117
189 1 11 0.0000 7.29192 10.766 -76.9801
190 1 2 0.0000 10.848499 10.1116 -74.594696
191 1 2 0.0000 11.8139 8.29306 -71.8089
192 1 8 0.0000 12.551201 10.2487 -69.5577
193 1 2 0.0000 12.2036 5.1401196 -69.1844
194 1 6 0.0000 14.724899 4.69454 -70.031296
195 1 1 1.0000 17.1031 3.93767 -68.7089
196 1 2 0.0000 15.8022995 1.09892 -65.8615
197 1 6 0.0000 17.9411 2.6812 -63.8483
198 1 1 1.0000 16.7821 4.23236 -61.339897
199 1 4 0.0000 14.457701 -1.20045 -63.6693
200 1 6 0.0000 11.5042 -3.8861 -62.8123
201 1 1 1.0000 9.109489 -4.73793 -61.5489
202 1 4 0.0000 12.9737 0.942125 -61.7297
203 1 16 0.0000 12.186399 0.428004 -59.3087
204 1 4 0.0000 11.989401 3.19056 -63.975502
205 1 3 -1.0000 14.829201 5.86031 -65.2165
206 1 4 0.0000 10.504 1.23717 -65.7359
207 1 7 0.0000 11.8849 -0.78203404 -67.8296
208 1 1 1.0000 13.344899 -2.86562 -70.1031
209 1 7 0.0000 8.65805 -0.07199 -63.267002
210 1 3 -1.0000 7.1259 -1.27499 -59.280502
211 1 7 0.0000 7.09295 2.46717 -62.003296
212 1 3 -1.0000 6.28418 -0.75420797 -59.4371
213 1 7 0.0000 5.68089 3.43555 -64.829704
214 1 8 0.0000 7.63057 5.85454 -65.6038
215 1 7 0.0000 4.05437 0.662111 -65.0541
216 1 8 0.0000 5.2077904 -2.3494 -64.9059
217 1 13 0.0000 2.3969798 1.4602 -62.0956
218 1 7 0.0000 0.497044 3.26433 -63.646004
219 1 14 0.0000 1.3423 5.73313 -64.9568
220 1 14 0.0000 2.27042 6.2543 -67.1408
221 1 15 0.0000 0.799994 7.93222 -66.0391
222 1 7 0.0000 -0.711715 0.554327 -65.317795
223 1 8 0.0000 0.457733 -2.27494 -66.9389
224 1 7 0.0000 -1.76664 -1.21314 -62.7951
225 1 6 0.0000 0.939461 -3.2216098 -61.6939
226 1 1 1.0000 3.60407 -4.25312 -60.6282
227 1 9 0.0000 -3.43474 1.3145 -61.4892
228 1 6 0.0000 -2.75004 1.77114 -58.2463
229 1 1 1.0000 -3.93967 2.1001902 -55.949303
230 1 7 0.0000 -5.6097603 2.1410398 -63.7063
231 1 9 0.0000 -7.17907 -0.75135404 -63.8687
232 1 16 0.0000 -8.08131 -1.4736301 -66.2415
233 1 9 0.0000 -8.12682 -0.82575095 -60.630997
234 1 2 0.0000 -6.44628 -2.1170301 -58.0419
235 1 3 -1.0000 -7.51329 2.8682601 -60.023598
236 1 3 -1.0000 -7.76381 4.64541 -57.3221

Bonds

1 1 1 2
2 1 31 33
3 1 33 34
4 1 34 36
5 1 36 38
6 1 38 42
7 1 42 44
8 1 44 46
9 1 46 48
10 1 48 51
11 1 51 52
12 1 52 53
13 1 53 56
14 1 56 60
15 1 60 63
16 1 63 65
17 1 65 66
18 1 66 68
19 1 68 70
20 1 70 72
21 1 72 76
22 1 76 77
23 1 77 79
24 1 79 83
25 1 83 84
26 1 84 87
27 1 87 90
28 1 90 92
29 1 92 93
30 1 93 95
31 1 95 96
32 1 96 98
33 1 98 99
34 1 99 103
35 1 103 105
36 1 105 109
37 1 121 124
38 1 124 125
39 1 125 127
40 1 127 129
41 1 129 134
42 1 153 155
43 1 155 157
44 1 171 173
45 1 173 175
46 1 175 176
47 1 176 178
48 1 178 181
49 1 181 183
50 1 183 185
51 1 185 189
52 1 189 190
53 1 190 191
54 1 191 193
55 1 193 196
56 2 2 3
57 3 6 7
58 4 8 9
59 5 9 10
60 4 12 13
61 5 13 14
62 4 15 16
63 5 16 17
64 6 20 21
65 3 26 27
66 4 28 29
67 5 29 30
68 6 31 32
69 3 34 35
70 6 36 37
71 2 38 39
72 3 46 47
73 4 48 49
74 5 49 50
75 4 53 54
76 5 54 55
77 2 56 57
78 4 60 61
79 5 61 62
80 7 66 67
81 8 68 69
82 9 70 71
83 2 72 73
84 9 77 78
85 6 79 80
86 4 84 85
87 10 85 86
88 4 87 88
89 5 88 89
90 3 93 94
91 7 96 97
92 6 99 100
93 8 105 106
94 2 111 112
95 8 114 115
96 4 116 117
97 5 117 118
98 8 119 120
99 4 121 122
100 5 122 123
101 11 129 130
102 4 134 135
103 5 135 136
104 3 137 138
105 3 139 140
106 9 143 144
107 12 145 146
108 3 147 148
109 8 149 150
110 9 153 154
111 3 155 156
112 8 157 158
113 7 159 160
114 4 161 162
115 5 162 163
116 4 164 165
117 5 165 166
118 8 167 168
119 7 173 174
120 4 178 179
121 5 179 180
122 12 181 182
123 6 185 186
124 4 193 194
125 5 194 195
126 4 196 197
127 5 197 198
128 4 199 200
129 5 200 201
130 3 204 205
131 4 206 207
132 10 207 208
133 3 209 210
134 2 211 212
135 9 213 214
136 8 218 219
137 9 222 223
138 4 224 225
139 5 225 226
140 4 227 228
141 5 228 229
142 8 233 234
143 3 235 236
144 13 2 4
145 14 4 6
146 14 6 8
147 14 8 11
148 14 11 12
149 14 12 15
150 14 15 18
151 14 18 20
152 14 20 24
153 14 24 26
154 14 26 28
155 13 28 31
156 13 109 111
157 14 111 113
158 14 113 114
159 14 114 116
160 14 116 119
161 13 119 121
162 13 134 137
163 14 137 139
164 14 139 141
165 14 141 143
166 14 143 145
167 14 145 147
168 14 147 149
169 13 149 153
170 13 157 159
171 14 159 161
172 14 161 164
173 14 164 167
174 13 167 171
175 13 196 199
176 14 199 202
177 14 202 204
178 14 204 206
179 14 206 209
180 14 209 211
181 14 211 213
182 14 213 215
183 14 215 217
184 14 217 218
185 14 218 222
186 14 222 224
187 14 224 227
188 14 227 230
189 14 230 231
190 14 231 233
191 13 233 235
192 15 4 5
193 14 18 19
194 16 21 22
195 16 21 23
196 16 22 23
197 15 24 25
198 16 39 40
199 16 39 41
200 16 40 41
201 17 42 43
202 15 44 45
203 16 57 58
204 16 57 59
205 16 58 59
206 17 63 64
207 16 73 74
208 16 73 75
209 16 74 75
210 16 80 81
211 16 80 82
212 16 81 82
213 17 90 91
214 16 100 101
215 16 100 102
216 16 101 102
217 17 103 104
218 16 106 107
219 16 106 108
220 16 107 108
221 17 109 110
222 14 125 126
223 17 127 128
224 16 130 131
225 16 130 132
226 16 131 132
227 16 131 133
228 16 132 133
229 17 141 142
230 16 150 151
231 16 150 152
232 16 151 152
233 16 168 169
234 16 168 170
235 16 169 170
236 14 171 172
237 17 176 177
238 14 183 184
239 16 186 187
240 16 186 188
241 16 187 188
242 14 191 192
243 17 202 203
244 14 215 216
245 16 219 220
246 16 219 221
247 16 220 221
248 17 231 232

Angles

1 1 1 2 4
2 1 2 4 6
3 2 4 6 8
4 2 6 8 11
5 2 8 11 12
6 2 11 12 15
7 2 12 15 18
8 2 15 18 20
9 2 18 20 24
10 2 20 24 26
11 2 24 26 28
12 3 26 28 31
13 3 28 31 33
14 3 31 33 34
15 3 33 34 36
16 3 34 36 38
17 3 36 38 42
18 1 38 42 44
19 1 42 44 46
20 3 44 46 48
21 3 46 48 51
22 3 48 51 52
23 3 51 52 53
24 1 52 53 56
25 1 53 56 60
26 1 56 60 63
27 1 60 63 65
28 4 63 65 66
29 1 65 66 68
30 1 66 68 70
31 3 68 70 72
32 3 70 72 76
33 3 72 76 77
34 3 76 77 79
35 3 77 79 83
36 3 79 83 84
37 3 83 84 87
38 3 84 87 90
39 3 87 90 92
40 3 90 92 93
41 3 92 93 95
42 1 93 95 96
43 3 95 96 98
44 3 96 98 99
45 3 98 99 103
46 1 99 103 105
47 1 103 105 109
48 1 105 109 111
49 1 109 111 113
50 2 111 113 114
51 2 113 114 116
52 2 114 116 119
53 1 116 119 121
54 1 119 121 124
55 1 121 124 125
56 1 124 125 127
57 1 125 127 129
58 1 127 129 134
59 1 129 134 137
60 4 134 137 139
61 2 137 139 141
62 2 139 141 143
63 2 141 143 145
64 2 143 145 147
65 2 145 147 149
66 3 147 149 153
67 3 149 153 155
68 3 153 155 157
69 3 155 157 159
70 5 157 159 161
71 5 159 161 164
72 2 161 164 167
73 4 164 167 171
74 4 167 171 173
75 3 171 173 175
76 3 173 175 176
77 3 175 176 178
78 1 176 178 181
79 1 178 181 183
80 1 181 183 185
81 1 183 185 189
82 1 185 189 190
83 1 189 190 191
84 1 190 191 193
85 1 191 193 196
86 1 193 196 199
87 4 196 199 202
88 2 199 202 204
89 2 202 204 206
90 2 204 206 209
91 2 206 209 211
92 2 209 211 213
93 2 211 213 215
94 2 213 215 217
95 2 215 217 218
96 2 217 218 222
97 2 218 222 224
98 2 222 224 227
99 2 224 227 230
100 2 227 230 231
101 2 230 231 233
102 1 231 233 235
103 6 1 2 3
104 6 2 4 5
105 6 4 6 7
106 6 6 8 9
107 6 11 12 13
108 6 12 15 16
109 6 15 18 19
110 6 18 20 21
111 6 20 24 25
112 6 24 26 27
113 6 26 28 29
114 6 28 31 32
115 6 33 34 35
116 6 34 36 37
117 6 36 38 39
118 6 38 42 43
119 6 42 44 45
120 6 44 46 47
121 6 46 48 49
122 6 52 53 54
123 6 53 56 57
124 6 56 60 61
125 6 60 63 64
126 6 65 66 67
127 6 66 68 69
128 6 68 70 71
129 6 70 72 73
130 6 76 77 78
131 6 77 79 80
132 6 83 84 85
133 6 84 87 88
134 6 87 90 91
135 6 92 93 94
136 6 95 96 97
137 6 98 99 100
138 6 99 103 104
139 6 103 105 106
140 6 105 109 110
141 6 109 111 112
142 6 113 114 115
143 6 114 116 117
144 6 116 119 120
145 6 119 121 122
146 6 124 125 126
147 6 125 127 128
148 6 127 129 130
149 6 129 134 135
150 6 134 137 138
151 6 137 139 140
152 6 139 141 142
153 6 141 143 144
154 6 143 145 146
155 6 145 147 148
156 6 147 149 150
157 6 149 153 154
158 6 153 155 156
159 6 155 157 158
160 6 157 159 160
161 6 159 161 162
162 6 161 164 165
163 6 164 167 168
164 6 167 171 172
165 6 171 173 174
166 6 175 176 177
167 6 176 178 179
168 6 178 181 182
169 6 181 183 184
170 6 183 185 186
171 6 190 191 192
172 6 191 193 194
173 6 193 196 197
174 6 196 199 200
175 6 199 202 203
176 6 202 204 205
177 6 204 206 207
178 6 206 209 210
179 6 209 211 212
180 6 211 213 214
181 6 213 215 216
182 6 217 218 219
183 6 218 222 223
184 6 222 224 225
185 6 224 227 228
186 6 230 231 232
187 6 231 233 234
188 6 233 235 236
189 7 8 9 10
190 7 12 13 14
191 7 15 16 17
192 8 20 21 22
193 8 20 21 23
194 7 28 29 30
195 8 38 39 40
196 8 38 39 41
197 7 48 49 50
198 7 53 54 55
199 8 56 57 58
200 8 56 57 59
201 7 60 61 62
202 8 72 73 74
203 8 72 73 75
204 8 79 80 81
205 8 79 80 82
206 7 84 85 86
207 7 87 88 89
208 8 99 100 101
209 8 99 100 102
210 8 105 106 107
211 8 105 106 108
212 7 116 117 118
213 7 121 122 123
214 9 129 130 131
215 10 129 130 132
216 7 134 135 136
217 8 149 150 151
218 8 149 150 152
219 7 161 162 163
220 7 164 165 166
221 8 167 168 169
222 8 167 168 170
223 7 178 179 180
224 8 185 186 187
225 8 185 186 188
226 7 193 194 195
227 7 196 197 198
228 7 199 200 201
229 7 206 207 208
230 8 218 219 220
231 8 218 219 221
232 7 224 225 226
233 7 227 228 229

Dihedrals

1 1 4 6 8 11
2 1 6 8 11 12
3 1 8 11 12 15
4 1 11 12 15 18
5 1 12 15 18 20
6 1 15 18 20 24
7 1 18 20 24 26
8 1 20 24 26 28
9 1 111 113 114 116
10 1 113 114 116 119
11 1 137 139 141 143
12 1 139 141 143 145
13 1 141 143 145 147
14 1 143 145 147 149
15 1 159 161 164 167
16 1 199 202 204 206
17 1 202 204 206 209
18 1 204 206 209 211
19 1 206 209 211 213
20 1 209 211 213 215
21 1 211 213 215 217
22 1 213 215 217 218
23 1 215 217 218 222
24 1 217 218 222 224
25 1 218 222 224 227
26 1 222 224 227 230
27 1 224 227 230 231
28 1 227 230 231 233

Impropers

1 1 20 22 23 21
2 1 38 40 41 39
3 1 56 58 59 57
4 1 72 74 75 73
5 1 79 81 82 80
6 1 99 101 102 100
7 1 105 107 108 106
8 1 129 131 132 130
9 2 130 131 133 132
10 1 149 151 152 150
11 1 167 169 170 168
12 1 185 187 188 186
13 1 218 220 221 219

