comment

236 atoms
248 bonds
233 angles
28 dihedrals
13 impropers

17 atom types
17 bond types
10 angle types
1 dihedral types
2 improper types

-40.5 40.5 xlo xhi
-40.5 40.5 ylo yhi
-190.0 190.0 zlo zhi

Masses

1 72.0
2 72.0
3 72.0
4 72.0
5 72.0
6 72.0
7 72.0
8 72.0
9 72.0
10 45.0
11 72.0
12 72.0
13 72.0
14 45.0
15 45.0
16 72.0
17 45.0

PairIJ Coeffs

1 1 1.19503 4.699999999999999
1 2 1.3384336 4.699999999999999
1 3 1.3384336 4.699999999999999
1 4 0.956024 4.699999999999999
1 5 0.478012 4.699999999999999
1 6 0.5497137999999999 4.699999999999999
1 7 0.836521 4.699999999999999
1 8 0.478012 4.699999999999999
1 9 1.19503 4.699999999999999
1 10 0.7409186 4.699999999999999
1 11 1.3384336 4.699999999999999
1 12 1.19503 4.699999999999999
1 13 0.7409186 4.699999999999999
1 14 0.6453162 4.699999999999999
1 15 1.19503 4.699999999999999
1 16 1.19503 4.699999999999999
1 17 0.956024 4.699999999999999
2 2 1.3384336 4.699999999999999
2 3 1.3384336 4.699999999999999
2 4 1.19503 4.699999999999999
2 5 0.5497137999999999 4.699999999999999
2 6 0.6453162 4.699999999999999
2 7 0.836521 4.699999999999999
2 8 0.478012 4.699999999999999
2 9 1.19503 4.699999999999999
2 10 0.7409186 4.699999999999999
2 11 1.3384336 4.699999999999999
2 12 1.19503 4.699999999999999
2 13 0.7409186 4.699999999999999
2 14 0.6453162 4.699999999999999
2 15 1.3384336 4.699999999999999
2 16 1.3384336 4.699999999999999
2 17 1.19503 4.699999999999999
3 3 1.19503 4.699999999999999
3 4 1.19503 4.699999999999999
3 5 0.478012 4.699999999999999
3 6 0.5497137999999999 4.699999999999999
3 7 0.836521 4.699999999999999
3 8 0.478012 4.699999999999999
3 9 0.956024 4.699999999999999
3 10 0.7409186 4.699999999999999
3 11 1.3384336 4.699999999999999
3 12 1.19503 4.699999999999999
3 13 0.7409186 4.699999999999999
3 14 0.6453162 4.699999999999999
3 15 1.19503 4.699999999999999
3 16 1.19503 4.699999999999999
3 17 1.19503 4.699999999999999
4 4 0.956024 4.699999999999999
4 5 0.6453162 4.699999999999999
4 6 0.6453162 4.699999999999999
4 7 0.836521 4.699999999999999
4 8 0.6453162 4.699999999999999
4 9 1.075527 4.699999999999999
4 10 0.836521 4.699999999999999
4 11 0.956024 4.699999999999999
4 12 1.075527 4.699999999999999
4 13 0.836521 4.699999999999999
4 14 0.7409186 4.699999999999999
4 15 1.075527 4.699999999999999
4 16 1.075527 4.699999999999999
4 17 0.956024 4.699999999999999
5 5 0.836521 4.699999999999999
5 6 0.836521 4.699999999999999
5 7 0.7409186 4.699999999999999
5 8 0.836521 4.699999999999999
5 9 0.6453162 4.699999999999999
5 10 0.7409186 4.699999999999999
5 11 0.5497137999999999 4.699999999999999
5 12 0.6453162 4.699999999999999
5 13 0.7409186 4.699999999999999
5 14 0.7409186 4.699999999999999
5 15 0.7409186 4.699999999999999
5 16 0.7409186 4.699999999999999
5 17 0.6453162 4.699999999999999
6 6 0.836521 4.699999999999999
6 7 0.836521 4.699999999999999
6 8 0.836521 4.699999999999999
6 9 0.6453162 4.699999999999999
6 10 0.836521 4.699999999999999
6 11 0.6453162 4.699999999999999
6 12 0.6453162 4.699999999999999
6 13 0.836521 4.699999999999999
6 14 0.836521 4.699999999999999
6 15 0.836521 4.699999999999999
6 16 0.836521 4.699999999999999
6 17 0.6453162 4.699999999999999
7 7 0.836521 4.699999999999999
7 8 0.6453162 4.699999999999999
7 9 0.836521 4.699999999999999
7 10 0.836521 4.699999999999999
7 11 0.836521 4.699999999999999
7 12 0.836521 4.699999999999999
7 13 0.836521 4.699999999999999
7 14 0.836521 4.699999999999999
7 15 0.956024 4.699999999999999
7 16 0.956024 4.699999999999999
7 17 0.836521 4.699999999999999
8 8 0.836521 4.699999999999999
8 9 0.6453162 4.699999999999999
8 10 0.7409186 4.699999999999999
8 11 0.478012 4.699999999999999
8 12 0.6453162 4.699999999999999
8 13 0.7409186 4.699999999999999
8 14 0.7409186 4.699999999999999
8 15 0.6453162 4.699999999999999
8 16 0.6453162 4.699999999999999
8 17 0.6453162 4.699999999999999
9 9 0.956024 4.699999999999999
9 10 0.836521 4.699999999999999
9 11 0.956024 4.699999999999999
9 12 1.075527 4.699999999999999
9 13 0.836521 4.699999999999999
9 14 0.7409186 4.699999999999999
9 15 1.075527 4.699999999999999
9 16 1.075527 4.699999999999999
9 17 1.075527 4.699999999999999
10 10 0.62739075 4.3
10 11 0.7409186 4.699999999999999
10 12 0.836521 4.699999999999999
10 13 0.836521 4.699999999999999
10 14 0.62739075 4.3
10 15 0.62739075 4.3
10 16 0.836521 4.699999999999999
10 17 0.62739075 4.3
11 11 1.19503 4.699999999999999
11 12 0.956024 4.699999999999999
11 13 0.7409186 4.699999999999999
11 14 0.6453162 4.699999999999999
11 15 1.075527 4.699999999999999
11 16 1.075527 4.699999999999999
11 17 0.956024 4.699999999999999
12 12 1.075527 4.699999999999999
12 13 0.836521 4.699999999999999
12 14 0.7409186 4.699999999999999
12 15 1.075527 4.699999999999999
12 16 1.075527 4.699999999999999
12 17 1.075527 4.699999999999999
13 13 0.836521 4.699999999999999
13 14 0.836521 4.699999999999999
13 15 0.836521 4.699999999999999
13 16 0.836521 4.699999999999999
13 17 0.836521 4.699999999999999
14 14 0.62739075 4.3
14 15 0.62739075 4.3
14 16 0.836521 4.699999999999999
14 17 0.5556889500000001 4.3
15 15 0.80664525 4.3
15 16 1.075527 4.699999999999999
15 17 0.80664525 4.3
16 16 1.075527 4.699999999999999
16 17 1.075527 4.699999999999999
17 17 0.7170179999999999 4.3

Bond Coeffs

1 1.4937875 3.5
2 8.962725 3.2
3 5.97515 4.0
4 5.97515 3.3000000000000003
5 5.97515 2.8000000000000003
6 8.962725 3.1
7 8.962725 3.0
8 5.97515 3.2
9 8.962725 3.3000000000000003
10 5.97515 3.4000000000000004
11 5.97515 3.0
12 2.987575 4.0
13 11.9503 3.3000000000000003
14 11.9503 3.1
15 11.9503 2.6500000000000004
16 11.9503 2.7
17 11.9503 2.6

Angle Coeffs

1 2.39006 127
2 83.6521 96
3 2.39006 100
4 2.39006 130
5 11.9503 98
6 2.987575 100
7 2.987575 180
8 5.97515 150
9 5.97515 210
10 5.97515 90

Dihedral Coeffs

1 95.6024 1 -120 0

Improper Coeffs

1 5.97515 0
2 23.9006 0

Atoms

1 1 1 1.0000 1.2549999 -0.027 -48.818
2 1 2 0.0000 0.119655 0.0745799 -51.0474
3 1 3 -1.0000 -1.00934 -1.07299 -53.1643
4 1 4 0.0000 2.11615 2.03013 -54.2288
5 1 5 0.0000 3.43312 0.226455 -55.3927
6 1 4 0.0000 1.44808 4.96116 -54.9711
7 1 3 -1.0000 -2.11587 6.07949 -54.9942
8 1 4 0.0000 4.22623 6.02449 -56.026604
9 1 6 0.0000 6.88918 4.44486 -54.8088
10 1 1 1.0000 7.97087 1.85132 -55.975998
11 1 4 0.0000 4.05654 4.7527 -58.8654
12 1 7 0.0000 1.6724 6.94481 -60.0601
13 1 6 0.0000 -1.45857 6.18726 -60.7732
14 1 1 1.0000 -4.26906 6.30828 -59.334
15 1 7 0.0000 3.4542398 9.79021 -59.5661
16 1 6 0.0000 1.72645 10.7286 -57.1233
17 1 1 1.0000 0.530444 9.6359005 -54.2906
18 1 7 0.0000 5.7815 9.25067 -61.6661
19 1 8 0.0000 8.02786 7.4591 -60.662098
20 1 9 0.0000 4.1976 9.93766 -64.2741
21 1 10 0.0000 5.4721303 9.60329 -67.1611
22 1 10 0.0000 4.77505 9.40646 -69.7742
23 1 10 0.0000 7.4137096 9.50107 -68.8026
24 1 9 0.0000 3.42687 13.073 -63.7281
25 1 5 0.0000 1.14993 13.5143 -62.889
26 1 9 0.0000 6.23358 14.2657 -63.2314
27 1 11 0.0000 5.00167 17.5619 -65.6076
28 1 9 0.0000 7.97394 13.576 -65.9219
29 1 6 0.0000 9.42076 10.7952 -64.6109
30 1 1 1.0000 11.114399 8.73787 -65.255196
31 1 12 0.0000 6.9563904 14.3615 -69.340904
32 1 13 0.0000 8.19768 13.842899 -72.422
33 1 7 0.0000 4.05337 14.176701 -68.8308
34 1 12 0.0000 1.2586901 12.392 -68.271194
35 1 11 0.0000 -1.56783 15.500099 -67.8445
36 1 12 0.0000 0.174844 12.5968 -71.434006
37 1 13 0.0000 -0.931481 15.5824 -71.5112
38 1 2 0.0000 -0.82977897 8.71427 -70.6911
39 1 14 0.0000 1.72324 7.13748 -71.971405
40 1 15 0.0000 3.63339 5.5551796 -71.8919
41 1 15 0.0000 3.96886 7.6100597 -73.864105
42 1 2 0.0000 -4.30933 7.89151 -70.9935
43 1 16 0.0000 -4.9889903 7.81074 -73.3191
44 1 2 0.0000 -4.87985 6.59457 -67.8196
45 1 5 0.0000 -3.1272502 4.61659 -67.3545
46 1 2 0.0000 -7.1244698 6.22476 -64.5912
47 1 3 -1.0000 -5.78895 9.03911 -62.881298
48 1 12 0.0000 -10.127501 3.77759 -64.2299
49 1 6 0.0000 -11.6329 2.91965 -61.552902
50 1 1 1.0000 -11.6926 1.84276 -58.485497
51 1 12 0.0000 -11.936999 5.4329596 -66.2415
52 1 2 0.0000 -9.74722 8.605539 -67.5163
53 1 2 0.0000 -10.0557995 10.766 -65.999695
54 1 6 0.0000 -11.0905 9.26066 -62.553802
55 1 1 1.0000 -9.5245 7.41664 -60.454796
56 1 2 0.0000 -9.69458 13.004 -70.1588
57 1 14 0.0000 -10.906301 10.3238 -71.618
58 1 15 0.0000 -9.73535 8.4026 -72.9219
59 1 15 0.0000 -12.234699 7.78683 -72.0433
60 1 2 0.0000 -5.21131 12.7944 -71.5189
61 1 6 0.0000 -4.94077 11.719399 -68.5078
62 1 1 1.0000 -3.62403 11.4751005 -66.0555
63 1 2 0.0000 -3.4276 12.3523 -75.1476
64 1 16 0.0000 -3.79477 14.536099 -76.5977
65 1 2 0.0000 -0.976429 10.2779 -75.8578
66 1 11 0.0000 0.103351995 7.12233 -76.806404
67 1 6 0.0000 1.18598 6.29976 -79.3814
68 1 2 0.0000 -1.19962 4.68723 -74.4687
69 1 2 0.0000 -4.23987 4.09295 -76.3424
70 1 2 0.0000 -1.9679201 3.26105 -71.8687
71 1 8 0.0000 0.419919 2.6194098 -69.7747
72 1 12 0.0000 -5.68825 2.64763 -73.9111
73 1 14 0.0000 -7.3839197 3.4720998 -71.2748
74 1 15 0.0000 -9.31975 4.60045 -70.3399
75 1 15 0.0000 -8.02955 3.2399602 -68.7058
76 1 12 0.0000 -7.58233 -0.716756 -73.3199
77 1 2 0.0000 -5.87033 -1.76347 -71.5719
78 1 8 0.0000 -4.20358 -0.252945 -68.769394
79 1 12 0.0000 -5.53481 -5.28623 -70.5175
80 1 10 0.0000 -5.10921 -5.54507 -67.5034
81 1 10 0.0000 -3.91292 -4.7750897 -65.5019
82 1 10 0.0000 -5.8831 -6.47717 -65.261
83 1 12 0.0000 -5.89757 -7.89314 -72.9853
84 1 2 0.0000 -4.0668 -6.59177 -75.5269
85 1 7 0.0000 -3.99296 -3.8773 -75.5624
86 1 1 1.0000 -4.16291 -0.98194194 -77.1536
87 1 2 0.0000 -3.1324801 -7.3982196 -79.2594
88 1 6 0.0000 -1.03548 -9.33587 -80.523796
89 1 1 1.0000 0.0475608 -11.7723 -80.1902
90 1 12 0.0000 -1.7611 -4.4805803 -80.395096
91 1 16 0.0000 0.059583403 -3.71633 -78.7678
92 1 12 0.0000 -4.31745 -2.63875 -81.8304
93 1 2 0.0000 -7.64736 -1.34478 -80.7668
94 1 11 0.0000 -8.69161 -3.97545 -77.564705
95 1 11 0.0000 -8.95768 1.05112 -77.7012
96 1 7 0.0000 -10.6225 3.6446402 -75.7762
97 1 6 0.0000 -13.250299 3.67645 -74.845
98 1 12 0.0000 -8.50665 6.34284 -77.343895
99 1 2 0.0000 -8.16382 4.70042 -80.376396
100 1 10 0.0000 -7.3055 7.47987 -82.0448
101 1 10 0.0000 -6.34521 7.2042503 -84.399796
102 1 10 0.0000 -6.41958 9.68249 -82.9478
103 1 2 0.0000 -4.98846 2.80868 -81.413
104 1 16 0.0000 -5.30667 1.8769699 -83.82089
105 1 2 0.0000 -2.44902 5.1713095 -82.2274
106 1 14 0.0000 -3.3718898 7.76828 -80.4173
107 1 14 0.0000 -4.9369802 9.39906 -78.7435
108 1 15 0.0000 -3.00167 10.3363 -80.4002
109 1 2 0.0000 -1.58051 4.88707 -85.4316
110 1 16 0.0000 -2.70533 6.6419797 -87.4691
111 1 4 0.0000 0.859254 3.1199698 -85.3345
112 1 3 -1.0000 2.18146 1.48641 -87.803604
113 1 7 0.0000 2.19665 2.52882 -82.643295
114 1 12 0.0000 -0.186181 0.24940601 -81.8232
115 1 2 0.0000 -0.111587 1.43277 -78.4621
116 1 12 0.0000 0.287386 -1.6676999 -84.1961
117 1 6 0.0000 -1.7476401 -1.0756 -86.7375
118 1 1 1.0000 -2.09223 0.12178 -89.0155
119 1 9 0.0000 3.33323 -2.58154 -83.6781
120 1 2 0.0000 4.51159 -3.0401 -86.9227
121 1 2 0.0000 5.25632 -4.97897 -82.025406
122 1 6 0.0000 8.49989 -4.98489 -80.9879
123 1 1 1.0000 10.4755 -5.7456703 -78.6166
124 1 2 0.0000 3.4458601 -6.90049 -80.0618
125 1 2 0.0000 1.9084901 -8.19235 -76.6809
126 1 8 0.0000 3.91999 -10.4179 -76.257904
127 1 2 0.0000 0.336723 -9.75241 -73.4335
128 1 16 0.0000 -1.6013899 -11.104799 -74.5699
129 1 2 0.0000 -1.07623 -8.05164 -70.6331
130 1 14 0.0000 -0.837119 -4.9562697 -70.8098
131 1 17 0.0000 -0.66034603 -2.5542798 -71.5038
132 1 10 0.0000 0.190651 -4.52461 -73.2231
133 1 10 0.0000 0.733423 -1.86815 -73.9393
134 1 2 0.0000 0.58507 -8.55316 -67.5223
135 1 6 0.0000 3.0521898 -11.1335 -67.021194
136 1 1 1.0000 4.66453 -11.7379 -64.4275
137 1 4 0.0000 2.6762 -6.55016 -65.7568
138 1 3 -1.0000 5.2423697 -7.47083 -62.6951
139 1 4 0.0000 5.3267198 -7.29613 -67.4443
140 1 3 -1.0000 6.60475 -7.78857 -63.2118
141 1 4 0.0000 4.0478 -5.9695797 -70.3548
142 1 16 0.0000 4.49482 -7.7721 -71.986496
143 1 12 0.0000 4.50392 -3.06792 -69.5206
144 1 8 0.0000 4.08116 -0.509861 -70.2679
145 1 9 0.0000 7.7063 -3.22858 -69.077805
146 1 13 0.0000 9.620029 -6.2992196 -66.7884
147 1 9 0.0000 8.5400305 -3.78193 -71.8387
148 1 3 -1.0000 11.6333 -3.96098 -74.3504
149 1 9 0.0000 7.67237 -0.816501 -73.1745
150 1 14 0.0000 5.62443 1.16658 -74.5575
151 1 14 0.0000 4.34911 3.09731 -76.0064
152 1 15 0.0000 3.175 2.05757 -74.2587
153 1 12 0.0000 9.7163 0.99136704 -71.6151
154 1 8 0.0000 7.2541 2.88623 -70.0427
155 1 12 0.0000 12.5078 1.3891201 -72.3554
156 1 3 -1.0000 16.0021 0.267337 -71.2482
157 1 2 0.0000 12.848999 3.69317 -73.975204
158 1 2 0.0000 15.416401 3.9774299 -75.9276
159 1 7 0.0000 9.91193 3.5003998 -75.6561
160 1 6 0.0000 7.96922 5.566 -73.9765
161 1 12 0.0000 11.1971 3.24875 -78.3561
162 1 6 0.0000 12.9854 5.92578 -79.302605
163 1 1 1.0000 12.759399 8.2166395 -80.42149
164 1 12 0.0000 11.528501 0.237616 -78.5273
165 1 6 0.0000 14.4144 -0.0874389 -78.179596
166 1 1 1.0000 15.222599 -1.38355 -75.3377
167 1 12 0.0000 8.54084 -0.815469 -78.0453
168 1 14 0.0000 6.38917 -3.12298 -77.122406
169 1 14 0.0000 4.28653 -3.81849 -75.458
170 1 15 0.0000 6.1810203 -5.42085 -76.1234
171 1 2 0.0000 6.9169803 0.90418196 -80.0123
172 1 8 0.0000 4.30971 -0.89785904 -79.457794
173 1 7 0.0000 7.45119 0.91385 -83.8459
174 1 6 0.0000 8.93328 -1.60941 -84.3289
175 1 12 0.0000 9.10746 3.8470798 -83.2128
176 1 2 0.0000 6.32575 5.6324797 -81.2304
177 1 16 0.0000 6.57108 5.90787 -78.8349
178 1 2 0.0000 4.75737 7.03239 -83.7639
179 1 6 0.0000 5.5872 5.3080997 -86.109505
180 1 1 1.0000 6.1995 3.86447 -88.020004
181 1 2 0.0000 1.61202 8.88081 -83.727196
182 1 13 0.0000 1.94287 7.66654 -87.70621
183 1 2 0.0000 2.20361 11.2328005 -80.6448
184 1 8 0.0000 0.188914 13.6385 -80.293594
185 1 2 0.0000 4.16913 11.3501 -77.458
186 1 10 0.0000 2.87637 13.6069 -75.9624
187 1 10 0.0000 3.38656 15.2588 -73.916
188 1 10 0.0000 1.37183 15.584801 -75.7493
189 1 11 0.0000 6.99991 10.8954 -76.4498
190 1 2 0.0000 10.939301 9.12678 -75.2714
191 1 2 0.0000 10.9092 8.04405 -71.345604
192 1 8 0.0000 12.7966 9.94229 -69.5376
193 1 2 0.0000 12.0786 4.55896 -68.848404
194 1 6 0.0000 15.2836 4.61246 -70.2992
195 1 1 1.0000 17.4483 4.22638 -68.888306
196 1 2 0.0000 15.3888 1.4795899 -65.6547
197 1 6 0.0000 17.4595 2.86037 -63.8905
198 1 1 1.0000 16.9322 4.8732 -61.785896
199 1 4 0.0000 14.432899 -0.609901 -63.113598
200 1 6 0.0000 11.8541 -3.4791698 -62.417797
201 1 1 1.0000 9.08134 -4.47101 -61.2878
202 1 4 0.0000 12.9746 1.14535 -61.290203
203 1 16 0.0000 11.8721 1.02759 -58.902603
204 1 4 0.0000 12.048901 3.46704 -63.512604
205 1 3 -1.0000 14.8536005 6.45024 -65.3968
206 1 4 0.0000 10.2913 1.1376799 -65.287796
207 1 7 0.0000 11.665899 -1.06338 -67.5482
208 1 1 1.0000 12.9435005 -3.0954099 -69.7944
209 1 7 0.0000 8.6609 0.0559886 -63.2832
210 1 3 -1.0000 6.8547 -1.21623 -59.3565
211 1 7 0.0000 7.29294 2.60214 -62.0558
212 1 3 -1.0000 6.07238 -0.133739 -59.4937
213 1 7 0.0000 5.7899 3.3021798 -64.7657
214 1 8 0.0000 7.49528 5.52222 -66.0877
215 1 7 0.0000 4.24922 0.34637702 -64.8271
216 1 8 0.0000 5.07329 -2.2562199 -65.096
217 1 13 0.0000 2.46683 0.884554 -62.137497
218 1 7 0.0000 0.558499 2.7372398 -63.4799
219 1 14 0.0000 1.48232 5.4764004 -64.8421
220 1 14 0.0000 2.2832398 6.42972 -67.0156
221 1 15 0.0000 0.110034004 7.84347 -65.7574
222 1 7 0.0000 -0.977135 0.48037702 -65.2933
223 1 8 0.0000 0.36777702 -1.9723401 -66.5935
224 1 7 0.0000 -1.8729999 -1.14139 -62.736702
225 1 6 0.0000 0.613107 -3.4183698 -62.2056
226 1 1 1.0000 3.3177302 -3.69408 -61.0791
227 1 9 0.0000 -3.3720999 1.36558 -61.4861
228 1 6 0.0000 -2.3415 2.24524 -58.3805
229 1 1 1.0000 -4.42103 1.9856 -55.55
230 1 7 0.0000 -5.4492 1.77764 -63.940804
231 1 9 0.0000 -6.9126396 -0.95371497 -63.6847
232 1 16 0.0000 -8.20737 -1.6083599 -65.8792
233 1 9 0.0000 -7.6098595 -0.795235 -60.459297
234 1 2 0.0000 -5.62846 -1.80271 -58.1505
235 1 3 -1.0000 -7.4257603 2.6403499 -59.4994
236 1 3 -1.0000 -8.321131 4.57533 -56.968002

Bonds

1 1 1 2
2 1 31 33
3 1 33 34
4 1 34 36
5 1 36 38
6 1 38 42
7 1 42 44
8 1 44 46
9 1 46 48
10 1 48 51
11 1 51 52
12 1 52 53
13 1 53 56
14 1 56 60
15 1 60 63
16 1 63 65
17 1 65 66
18 1 66 68
19 1 68 70
20 1 70 72
21 1 72 76
22 1 76 77
23 1 77 79
24 1 79 83
25 1 83 84
26 1 84 87
27 1 87 90
28 1 90 92
29 1 92 93
30 1 93 95
31 1 95 96
32 1 96 98
33 1 98 99
34 1 99 103
35 1 103 105
36 1 105 109
37 1 121 124
38 1 124 125
39 1 125 127
40 1 127 129
41 1 129 134
42 1 153 155
43 1 155 157
44 1 171 173
45 1 173 175
46 1 175 176
47 1 176 178
48 1 178 181
49 1 181 183
50 1 183 185
51 1 185 189
52 1 189 190
53 1 190 191
54 1 191 193
55 1 193 196
56 2 2 3
57 3 6 7
58 4 8 9
59 5 9 10
60 4 12 13
61 5 13 14
62 4 15 16
63 5 16 17
64 6 20 21
65 3 26 27
66 4 28 29
67 5 29 30
68 6 31 32
69 3 34 35
70 6 36 37
71 2 38 39
72 3 46 47
73 4 48 49
74 5 49 50
75 4 53 54
76 5 54 55
77 2 56 57
78 4 60 61
79 5 61 62
80 7 66 67
81 8 68 69
82 9 70 71
83 2 72 73
84 9 77 78
85 6 79 80
86 4 84 85
87 10 85 86
88 4 87 88
89 5 88 89
90 3 93 94
91 7 96 97
92 6 99 100
93 8 105 106
94 2 111 112
95 8 114 115
96 4 116 117
97 5 117 118
98 8 119 120
99 4 121 122
100 5 122 123
101 11 129 130
102 4 134 135
103 5 135 136
104 3 137 138
105 3 139 140
106 9 143 144
107 12 145 146
108 3 147 148
109 8 149 150
110 9 153 154
111 3 155 156
112 8 157 158
113 7 159 160
114 4 161 162
115 5 162 163
116 4 164 165
117 5 165 166
118 8 167 168
119 7 173 174
120 4 178 179
121 5 179 180
122 12 181 182
123 6 185 186
124 4 193 194
125 5 194 195
126 4 196 197
127 5 197 198
128 4 199 200
129 5 200 201
130 3 204 205
131 4 206 207
132 10 207 208
133 3 209 210
134 2 211 212
135 9 213 214
136 8 218 219
137 9 222 223
138 4 224 225
139 5 225 226
140 4 227 228
141 5 228 229
142 8 233 234
143 3 235 236
144 13 2 4
145 14 4 6
146 14 6 8
147 14 8 11
148 14 11 12
149 14 12 15
150 14 15 18
151 14 18 20
152 14 20 24
153 14 24 26
154 14 26 28
155 13 28 31
156 13 109 111
157 14 111 113
158 14 113 114
159 14 114 116
160 14 116 119
161 13 119 121
162 13 134 137
163 14 137 139
164 14 139 141
165 14 141 143
166 14 143 145
167 14 145 147
168 14 147 149
169 13 149 153
170 13 157 159
171 14 159 161
172 14 161 164
173 14 164 167
174 13 167 171
175 13 196 199
176 14 199 202
177 14 202 204
178 14 204 206
179 14 206 209
180 14 209 211
181 14 211 213
182 14 213 215
183 14 215 217
184 14 217 218
185 14 218 222
186 14 222 224
187 14 224 227
188 14 227 230
189 14 230 231
190 14 231 233
191 13 233 235
192 15 4 5
193 14 18 19
194 16 21 22
195 16 21 23
196 16 22 23
197 15 24 25
198 16 39 40
199 16 39 41
200 16 40 41
201 17 42 43
202 15 44 45
203 16 57 58
204 16 57 59
205 16 58 59
206 17 63 64
207 16 73 74
208 16 73 75
209 16 74 75
210 16 80 81
211 16 80 82
212 16 81 82
213 17 90 91
214 16 100 101
215 16 100 102
216 16 101 102
217 17 103 104
218 16 106 107
219 16 106 108
220 16 107 108
221 17 109 110
222 14 125 126
223 17 127 128
224 16 130 131
225 16 130 132
226 16 131 132
227 16 131 133
228 16 132 133
229 17 141 142
230 16 150 151
231 16 150 152
232 16 151 152
233 16 168 169
234 16 168 170
235 16 169 170
236 14 171 172
237 17 176 177
238 14 183 184
239 16 186 187
240 16 186 188
241 16 187 188
242 14 191 192
243 17 202 203
244 14 215 216
245 16 219 220
246 16 219 221
247 16 220 221
248 17 231 232

Angles

1 1 1 2 4
2 1 2 4 6
3 2 4 6 8
4 2 6 8 11
5 2 8 11 12
6 2 11 12 15
7 2 12 15 18
8 2 15 18 20
9 2 18 20 24
10 2 20 24 26
11 2 24 26 28
12 3 26 28 31
13 3 28 31 33
14 3 31 33 34
15 3 33 34 36
16 3 34 36 38
17 3 36 38 42
18 1 38 42 44
19 1 42 44 46
20 3 44 46 48
21 3 46 48 51
22 3 48 51 52
23 3 51 52 53
24 1 52 53 56
25 1 53 56 60
26 1 56 60 63
27 1 60 63 65
28 4 63 65 66
29 1 65 66 68
30 1 66 68 70
31 3 68 70 72
32 3 70 72 76
33 3 72 76 77
34 3 76 77 79
35 3 77 79 83
36 3 79 83 84
37 3 83 84 87
38 3 84 87 90
39 3 87 90 92
40 3 90 92 93
41 3 92 93 95
42 1 93 95 96
43 3 95 96 98
44 3 96 98 99
45 3 98 99 103
46 1 99 103 105
47 1 103 105 109
48 1 105 109 111
49 1 109 111 113
50 2 111 113 114
51 2 113 114 116
52 2 114 116 119
53 1 116 119 121
54 1 119 121 124
55 1 121 124 125
56 1 124 125 127
57 1 125 127 129
58 1 127 129 134
59 1 129 134 137
60 4 134 137 139
61 2 137 139 141
62 2 139 141 143
63 2 141 143 145
64 2 143 145 147
65 2 145 147 149
66 3 147 149 153
67 3 149 153 155
68 3 153 155 157
69 3 155 157 159
70 5 157 159 161
71 5 159 161 164
72 2 161 164 167
73 4 164 167 171
74 4 167 171 173
75 3 171 173 175
76 3 173 175 176
77 3 175 176 178
78 1 176 178 181
79 1 178 181 183
80 1 181 183 185
81 1 183 185 189
82 1 185 189 190
83 1 189 190 191
84 1 190 191 193
85 1 191 193 196
86 1 193 196 199
87 4 196 199 202
88 2 199 202 204
89 2 202 204 206
90 2 204 206 209
91 2 206 209 211
92 2 209 211 213
93 2 211 213 215
94 2 213 215 217
95 2 215 217 218
96 2 217 218 222
97 2 218 222 224
98 2 222 224 227
99 2 224 227 230
100 2 227 230 231
101 2 230 231 233
102 1 231 233 235
103 6 1 2 3
104 6 2 4 5
105 6 4 6 7
106 6 6 8 9
107 6 11 12 13
108 6 12 15 16
109 6 15 18 19
110 6 18 20 21
111 6 20 24 25
112 6 24 26 27
113 6 26 28 29
114 6 28 31 32
115 6 33 34 35
116 6 34 36 37
117 6 36 38 39
118 6 38 42 43
119 6 42 44 45
120 6 44 46 47
121 6 46 48 49
122 6 52 53 54
123 6 53 56 57
124 6 56 60 61
125 6 60 63 64
126 6 65 66 67
127 6 66 68 69
128 6 68 70 71
129 6 70 72 73
130 6 76 77 78
131 6 77 79 80
132 6 83 84 85
133 6 84 87 88
134 6 87 90 91
135 6 92 93 94
136 6 95 96 97
137 6 98 99 100
138 6 99 103 104
139 6 103 105 106
140 6 105 109 110
141 6 109 111 112
142 6 113 114 115
143 6 114 116 117
144 6 116 119 120
145 6 119 121 122
146 6 124 125 126
147 6 125 127 128
148 6 127 129 130
149 6 129 134 135
150 6 134 137 138
151 6 137 139 140
152 6 139 141 142
153 6 141 143 144
154 6 143 145 146
155 6 145 147 148
156 6 147 149 150
157 6 149 153 154
158 6 153 155 156
159 6 155 157 158
160 6 157 159 160
161 6 159 161 162
162 6 161 164 165
163 6 164 167 168
164 6 167 171 172
165 6 171 173 174
166 6 175 176 177
167 6 176 178 179
168 6 178 181 182
169 6 181 183 184
170 6 183 185 186
171 6 190 191 192
172 6 191 193 194
173 6 193 196 197
174 6 196 199 200
175 6 199 202 203
176 6 202 204 205
177 6 204 206 207
178 6 206 209 210
179 6 209 211 212
180 6 211 213 214
181 6 213 215 216
182 6 217 218 219
183 6 218 222 223
184 6 222 224 225
185 6 224 227 228
186 6 230 231 232
187 6 231 233 234
188 6 233 235 236
189 7 8 9 10
190 7 12 13 14
191 7 15 16 17
192 8 20 21 22
193 8 20 21 23
194 7 28 29 30
195 8 38 39 40
196 8 38 39 41
197 7 48 49 50
198 7 53 54 55
199 8 56 57 58
200 8 56 57 59
201 7 60 61 62
202 8 72 73 74
203 8 72 73 75
204 8 79 80 81
205 8 79 80 82
206 7 84 85 86
207 7 87 88 89
208 8 99 100 101
209 8 99 100 102
210 8 105 106 107
211 8 105 106 108
212 7 116 117 118
213 7 121 122 123
214 9 129 130 131
215 10 129 130 132
216 7 134 135 136
217 8 149 150 151
218 8 149 150 152
219 7 161 162 163
220 7 164 165 166
221 8 167 168 169
222 8 167 168 170
223 7 178 179 180
224 8 185 186 187
225 8 185 186 188
226 7 193 194 195
227 7 196 197 198
228 7 199 200 201
229 7 206 207 208
230 8 218 219 220
231 8 218 219 221
232 7 224 225 226
233 7 227 228 229

Dihedrals

1 1 4 6 8 11
2 1 6 8 11 12
3 1 8 11 12 15
4 1 11 12 15 18
5 1 12 15 18 20
6 1 15 18 20 24
7 1 18 20 24 26
8 1 20 24 26 28
9 1 111 113 114 116
10 1 113 114 116 119
11 1 137 139 141 143
12 1 139 141 143 145
13 1 141 143 145 147
14 1 143 145 147 149
15 1 159 161 164 167
16 1 199 202 204 206
17 1 202 204 206 209
18 1 204 206 209 211
19 1 206 209 211 213
20 1 209 211 213 215
21 1 211 213 215 217
22 1 213 215 217 218
23 1 215 217 218 222
24 1 217 218 222 224
25 1 218 222 224 227
26 1 222 224 227 230
27 1 224 227 230 231
28 1 227 230 231 233

Impropers

1 1 20 22 23 21
2 1 38 40 41 39
3 1 56 58 59 57
4 1 72 74 75 73
5 1 79 81 82 80
6 1 99 101 102 100
7 1 105 107 108 106
8 1 129 131 132 130
9 2 130 131 133 132
10 1 149 151 152 150
11 1 167 169 170 168
12 1 185 187 188 186
13 1 218 220 221 219

