comment

236 atoms
248 bonds
233 angles
28 dihedrals
13 impropers

17 atom types
17 bond types
10 angle types
1 dihedral types
2 improper types

-40.5 40.5 xlo xhi
-40.5 40.5 ylo yhi
-190.0 190.0 zlo zhi

Masses

1 72.0
2 72.0
3 72.0
4 72.0
5 72.0
6 72.0
7 72.0
8 72.0
9 72.0
10 45.0
11 72.0
12 72.0
13 72.0
14 45.0
15 45.0
16 72.0
17 45.0

PairIJ Coeffs

1 1 1.19503 4.699999999999999
1 2 1.3384336 4.699999999999999
1 3 1.3384336 4.699999999999999
1 4 0.956024 4.699999999999999
1 5 0.478012 4.699999999999999
1 6 0.5497137999999999 4.699999999999999
1 7 0.836521 4.699999999999999
1 8 0.478012 4.699999999999999
1 9 1.19503 4.699999999999999
1 10 0.7409186 4.699999999999999
1 11 1.3384336 4.699999999999999
1 12 1.19503 4.699999999999999
1 13 0.7409186 4.699999999999999
1 14 0.6453162 4.699999999999999
1 15 1.19503 4.699999999999999
1 16 1.19503 4.699999999999999
1 17 0.956024 4.699999999999999
2 2 1.3384336 4.699999999999999
2 3 1.3384336 4.699999999999999
2 4 1.19503 4.699999999999999
2 5 0.5497137999999999 4.699999999999999
2 6 0.6453162 4.699999999999999
2 7 0.836521 4.699999999999999
2 8 0.478012 4.699999999999999
2 9 1.19503 4.699999999999999
2 10 0.7409186 4.699999999999999
2 11 1.3384336 4.699999999999999
2 12 1.19503 4.699999999999999
2 13 0.7409186 4.699999999999999
2 14 0.6453162 4.699999999999999
2 15 1.3384336 4.699999999999999
2 16 1.3384336 4.699999999999999
2 17 1.19503 4.699999999999999
3 3 1.19503 4.699999999999999
3 4 1.19503 4.699999999999999
3 5 0.478012 4.699999999999999
3 6 0.5497137999999999 4.699999999999999
3 7 0.836521 4.699999999999999
3 8 0.478012 4.699999999999999
3 9 0.956024 4.699999999999999
3 10 0.7409186 4.699999999999999
3 11 1.3384336 4.699999999999999
3 12 1.19503 4.699999999999999
3 13 0.7409186 4.699999999999999
3 14 0.6453162 4.699999999999999
3 15 1.19503 4.699999999999999
3 16 1.19503 4.699999999999999
3 17 1.19503 4.699999999999999
4 4 0.956024 4.699999999999999
4 5 0.6453162 4.699999999999999
4 6 0.6453162 4.699999999999999
4 7 0.836521 4.699999999999999
4 8 0.6453162 4.699999999999999
4 9 1.075527 4.699999999999999
4 10 0.836521 4.699999999999999
4 11 0.956024 4.699999999999999
4 12 1.075527 4.699999999999999
4 13 0.836521 4.699999999999999
4 14 0.7409186 4.699999999999999
4 15 1.075527 4.699999999999999
4 16 1.075527 4.699999999999999
4 17 0.956024 4.699999999999999
5 5 0.836521 4.699999999999999
5 6 0.836521 4.699999999999999
5 7 0.7409186 4.699999999999999
5 8 0.836521 4.699999999999999
5 9 0.6453162 4.699999999999999
5 10 0.7409186 4.699999999999999
5 11 0.5497137999999999 4.699999999999999
5 12 0.6453162 4.699999999999999
5 13 0.7409186 4.699999999999999
5 14 0.7409186 4.699999999999999
5 15 0.7409186 4.699999999999999
5 16 0.7409186 4.699999999999999
5 17 0.6453162 4.699999999999999
6 6 0.836521 4.699999999999999
6 7 0.836521 4.699999999999999
6 8 0.836521 4.699999999999999
6 9 0.6453162 4.699999999999999
6 10 0.836521 4.699999999999999
6 11 0.6453162 4.699999999999999
6 12 0.6453162 4.699999999999999
6 13 0.836521 4.699999999999999
6 14 0.836521 4.699999999999999
6 15 0.836521 4.699999999999999
6 16 0.836521 4.699999999999999
6 17 0.6453162 4.699999999999999
7 7 0.836521 4.699999999999999
7 8 0.6453162 4.699999999999999
7 9 0.836521 4.699999999999999
7 10 0.836521 4.699999999999999
7 11 0.836521 4.699999999999999
7 12 0.836521 4.699999999999999
7 13 0.836521 4.699999999999999
7 14 0.836521 4.699999999999999
7 15 0.956024 4.699999999999999
7 16 0.956024 4.699999999999999
7 17 0.836521 4.699999999999999
8 8 0.836521 4.699999999999999
8 9 0.6453162 4.699999999999999
8 10 0.7409186 4.699999999999999
8 11 0.478012 4.699999999999999
8 12 0.6453162 4.699999999999999
8 13 0.7409186 4.699999999999999
8 14 0.7409186 4.699999999999999
8 15 0.6453162 4.699999999999999
8 16 0.6453162 4.699999999999999
8 17 0.6453162 4.699999999999999
9 9 0.956024 4.699999999999999
9 10 0.836521 4.699999999999999
9 11 0.956024 4.699999999999999
9 12 1.075527 4.699999999999999
9 13 0.836521 4.699999999999999
9 14 0.7409186 4.699999999999999
9 15 1.075527 4.699999999999999
9 16 1.075527 4.699999999999999
9 17 1.075527 4.699999999999999
10 10 0.62739075 4.3
10 11 0.7409186 4.699999999999999
10 12 0.836521 4.699999999999999
10 13 0.836521 4.699999999999999
10 14 0.62739075 4.3
10 15 0.62739075 4.3
10 16 0.836521 4.699999999999999
10 17 0.62739075 4.3
11 11 1.19503 4.699999999999999
11 12 0.956024 4.699999999999999
11 13 0.7409186 4.699999999999999
11 14 0.6453162 4.699999999999999
11 15 1.075527 4.699999999999999
11 16 1.075527 4.699999999999999
11 17 0.956024 4.699999999999999
12 12 1.075527 4.699999999999999
12 13 0.836521 4.699999999999999
12 14 0.7409186 4.699999999999999
12 15 1.075527 4.699999999999999
12 16 1.075527 4.699999999999999
12 17 1.075527 4.699999999999999
13 13 0.836521 4.699999999999999
13 14 0.836521 4.699999999999999
13 15 0.836521 4.699999999999999
13 16 0.836521 4.699999999999999
13 17 0.836521 4.699999999999999
14 14 0.62739075 4.3
14 15 0.62739075 4.3
14 16 0.836521 4.699999999999999
14 17 0.5556889500000001 4.3
15 15 0.80664525 4.3
15 16 1.075527 4.699999999999999
15 17 0.80664525 4.3
16 16 1.075527 4.699999999999999
16 17 1.075527 4.699999999999999
17 17 0.7170179999999999 4.3

Bond Coeffs

1 1.4937875 3.5
2 8.962725 3.2
3 5.97515 4.0
4 5.97515 3.3000000000000003
5 5.97515 2.8000000000000003
6 8.962725 3.1
7 8.962725 3.0
8 5.97515 3.2
9 8.962725 3.3000000000000003
10 5.97515 3.4000000000000004
11 5.97515 3.0
12 2.987575 4.0
13 11.9503 3.3000000000000003
14 11.9503 3.1
15 11.9503 2.6500000000000004
16 11.9503 2.7
17 11.9503 2.6

Angle Coeffs

1 2.39006 127
2 83.6521 96
3 2.39006 100
4 2.39006 130
5 11.9503 98
6 2.987575 100
7 2.987575 180
8 5.97515 150
9 5.97515 210
10 5.97515 90

Dihedral Coeffs

1 95.6024 1 -120 0

Improper Coeffs

1 5.97515 0
2 23.9006 0

Atoms

1 1 1 1.0000 1.2549999 -0.027 -48.818
2 1 2 0.0000 0.187994 0.180275 -51.0638
3 1 3 -1.0000 -1.22804 -0.81627 -53.239002
4 1 4 0.0000 1.77974 2.22213 -54.5174
5 1 5 0.0000 2.7274098 0.79092896 -56.276596
6 1 4 0.0000 1.65807 5.43216 -54.8336
7 1 3 -1.0000 -1.96433 5.91761 -55.616104
8 1 4 0.0000 4.39087 5.91586 -56.469997
9 1 6 0.0000 7.3374405 4.3442 -55.5323
10 1 1 1.0000 7.2785096 1.7325101 -55.8744
11 1 4 0.0000 3.82053 4.90675 -59.551804
12 1 7 0.0000 1.57076 7.1202803 -60.641197
13 1 6 0.0000 -1.90247 7.0285997 -61.240303
14 1 1 1.0000 -4.27553 6.12628 -59.8152
15 1 7 0.0000 3.31105 9.81884 -59.9262
16 1 6 0.0000 2.18472 11.2094 -57.2398
17 1 1 1.0000 -0.099789396 9.97907 -56.5315
18 1 7 0.0000 6.11314 9.45212 -61.9499
19 1 8 0.0000 8.57925 7.9540997 -60.8366
20 1 9 0.0000 4.80148 10.0692 -64.656204
21 1 10 0.0000 5.55959 9.47747 -67.607895
22 1 10 0.0000 5.13885 9.62723 -70.278305
23 1 10 0.0000 7.66811 9.02644 -69.2275
24 1 9 0.0000 3.79253 12.988 -63.756798
25 1 5 0.0000 1.7298 14.1448 -64.287
26 1 9 0.0000 6.46452 14.1155 -63.066402
27 1 11 0.0000 5.09577 17.7512 -65.0501
28 1 9 0.0000 8.06727 13.737101 -65.8244
29 1 6 0.0000 10.046999 11.1159 -65.5019
30 1 1 1.0000 11.1001005 8.58972 -65.2793
31 1 12 0.0000 6.7990103 14.0221 -69.1924
32 1 13 0.0000 8.87473 14.064699 -71.3136
33 1 7 0.0000 4.11881 14.4354 -69.6917
34 1 12 0.0000 1.2586 12.4994 -68.8515
35 1 11 0.0000 -0.675215 16.0264 -68.6886
36 1 12 0.0000 0.213103 12.0672 -71.482
37 1 13 0.0000 -1.24848 15.1267 -71.4755
38 1 2 0.0000 -0.693075 8.97232 -71.5109
39 1 14 0.0000 1.61169 7.3211904 -72.4257
40 1 15 0.0000 3.62461 5.6276703 -72.2915
41 1 15 0.0000 3.9524298 7.42194 -74.155304
42 1 2 0.0000 -5.23862 7.4664497 -71.3668
43 1 16 0.0000 -5.10744 8.15151 -73.962494
44 1 2 0.0000 -4.79738 7.20937 -67.862
45 1 5 0.0000 -3.20146 5.4942102 -66.9148
46 1 2 0.0000 -7.6652803 6.32947 -65.523
47 1 3 -1.0000 -5.9749403 9.42979 -63.3563
48 1 12 0.0000 -11.1551 4.01522 -64.5095
49 1 6 0.0000 -12.0929 2.6463602 -61.427303
50 1 1 1.0000 -11.5555 2.41221 -58.3527
51 1 12 0.0000 -12.636 5.65987 -67.9699
52 1 2 0.0000 -9.737881 7.7825203 -67.5919
53 1 2 0.0000 -10.503599 10.953199 -66.2192
54 1 6 0.0000 -10.9366 9.00537 -63.056103
55 1 1 1.0000 -9.36572 8.0421295 -60.5931
56 1 2 0.0000 -8.84205 12.4704 -70.767105
57 1 14 0.0000 -10.2057 9.719151 -71.6793
58 1 15 0.0000 -10.1624 6.9925203 -72.702095
59 1 15 0.0000 -12.365299 8.27331 -72.0755
60 1 2 0.0000 -5.4980803 13.026 -71.8831
61 1 6 0.0000 -4.04073 12.0472 -68.9339
62 1 1 1.0000 -3.3622 11.5099 -66.2759
63 1 2 0.0000 -2.8762298 12.8224 -75.92
64 1 16 0.0000 -2.75856 15.4505005 -76.929306
65 1 2 0.0000 -0.97575 10.650701 -76.332504
66 1 11 0.0000 0.351713 7.9732604 -77.2893
67 1 6 0.0000 1.6581299 6.45399 -79.7197
68 1 2 0.0000 -1.3685701 4.93033 -75.486496
69 1 2 0.0000 -3.5464098 4.88456 -77.704605
70 1 2 0.0000 -2.1715598 3.39301 -72.7646
71 1 8 0.0000 -0.20474198 3.27871 -70.191696
72 1 12 0.0000 -6.01887 2.5556202 -74.3872
73 1 14 0.0000 -7.5247 3.4362001 -71.6953
74 1 15 0.0000 -9.60394 2.9012399 -70.5889
75 1 15 0.0000 -7.48743 3.1115901 -69.036896
76 1 12 0.0000 -7.3200502 -1.03299 -73.8119
77 1 2 0.0000 -5.4689 -2.0011702 -71.3449
78 1 8 0.0000 -4.32541 -0.438964 -68.758995
79 1 12 0.0000 -6.06748 -5.57178 -70.3777
80 1 10 0.0000 -5.0054502 -6.0215096 -67.2736
81 1 10 0.0000 -2.8012898 -5.99257 -65.5342
82 1 10 0.0000 -4.78651 -7.0952997 -64.9283
83 1 12 0.0000 -6.0765896 -8.0842 -72.8012
84 1 2 0.0000 -5.24283 -6.36425 -76.4602
85 1 7 0.0000 -3.94146 -4.1519203 -75.1442
86 1 1 1.0000 -2.67089 -0.890707 -75.325096
87 1 2 0.0000 -3.56513 -7.48591 -78.9054
88 1 6 0.0000 -0.813694 -9.4327 -79.7493
89 1 1 1.0000 0.83179504 -9.62655 -82.0708
90 1 12 0.0000 -1.94569 -4.14227 -79.8123
91 1 16 0.0000 -0.09546681 -3.7239199 -78.3173
92 1 12 0.0000 -4.6545897 -3.34607 -82.4841
93 1 2 0.0000 -5.86969 -1.34958 -79.310005
94 1 11 0.0000 -8.94447 -4.0282197 -78.2677
95 1 11 0.0000 -7.9853396 1.17115 -79.8015
96 1 7 0.0000 -10.05 3.6293502 -77.182205
97 1 6 0.0000 -11.954599 2.43012 -75.2633
98 1 12 0.0000 -8.03098 6.48329 -77.3257
99 1 2 0.0000 -7.20962 5.76016 -81.399605
100 1 10 0.0000 -6.65281 8.37061 -82.9801
101 1 10 0.0000 -5.72079 8.53557 -85.5522
102 1 10 0.0000 -6.92687 10.690001 -84.2006
103 1 2 0.0000 -4.64111 3.84235 -82.6625
104 1 16 0.0000 -5.3382597 2.2283 -84.2434
105 1 2 0.0000 -1.47347 5.5622296 -82.9132
106 1 14 0.0000 -2.8149798 8.1650505 -81.030594
107 1 14 0.0000 -4.54506 9.69589 -79.512
108 1 15 0.0000 -3.08131 10.8278 -81.4233
109 1 2 0.0000 -0.39265302 5.03107 -86.00079
110 1 16 0.0000 -1.86499 6.2459097 -87.78
111 1 4 0.0000 1.6079401 2.50088 -85.9738
112 1 3 -1.0000 2.3449202 1.55694 -88.7018
113 1 7 0.0000 2.02736 2.4553099 -83.0416
114 1 12 0.0000 -0.603381 0.558899 -82.2385
115 1 2 0.0000 -0.47857797 1.3727599 -79.3557
116 1 12 0.0000 0.0393788 -2.20588 -84.19231
117 1 6 0.0000 -2.3196402 -1.1900901 -86.48871
118 1 1 1.0000 -2.10892 -0.049084 -88.5755
119 1 9 0.0000 2.8522701 -3.15474 -82.9534
120 1 2 0.0000 4.08115 -4.36591 -85.8354
121 1 2 0.0000 5.0775 -4.76764 -80.541
122 1 6 0.0000 8.61754 -4.30582 -81.052505
123 1 1 1.0000 10.7977 -5.63245 -79.183304
124 1 2 0.0000 4.01032 -6.60665 -79.1859
125 1 2 0.0000 1.87554 -7.47733 -76.6612
126 1 8 0.0000 2.8992 -10.7204 -76.1742
127 1 2 0.0000 -0.980113 -8.10619 -74.0791
128 1 16 0.0000 -1.67969 -10.1667 -75.1086
129 1 2 0.0000 -1.12662 -8.39487 -70.1858
130 1 14 0.0000 -0.785032 -5.07739 -70.3571
131 1 17 0.0000 -0.210116 -2.6898398 -71.520096
132 1 10 0.0000 0.619379 -4.76096 -72.7664
133 1 10 0.0000 1.41122 -2.53059 -73.6467
134 1 2 0.0000 0.207066 -9.1013 -67.448
135 1 6 0.0000 2.4393 -11.498899 -67.284195
136 1 1 1.0000 4.17465 -12.052899 -64.899994
137 1 4 0.0000 2.50242 -6.7901897 -66.3416
138 1 3 -1.0000 5.2479305 -8.17554 -62.951797
139 1 4 0.0000 5.2094502 -7.7316303 -67.643196
140 1 3 -1.0000 5.7570305 -7.89485 -63.206
141 1 4 0.0000 4.373 -6.01754 -70.6346
142 1 16 0.0000 3.9733899 -8.27663 -72.2158
143 1 12 0.0000 4.50857 -3.25039 -69.3707
144 1 8 0.0000 3.6263201 -0.357593 -70.0609
145 1 9 0.0000 7.61265 -3.31172 -68.5969
146 1 13 0.0000 9.81808 -5.9775 -66.5895
147 1 9 0.0000 8.72849 -3.6016 -71.5776
148 1 3 -1.0000 11.7443 -4.2686 -74.292305
149 1 9 0.0000 7.57371 -0.623676 -72.491394
150 1 14 0.0000 5.0915904 0.69997305 -74.6198
151 1 14 0.0000 3.94436 2.73418 -76.2985
152 1 15 0.0000 2.84523 1.71226 -74.5894
153 1 12 0.0000 9.28893 1.62321 -71.1745
154 1 8 0.0000 7.39003 3.7568 -69.9935
155 1 12 0.0000 12.4051 1.14038 -72.5747
156 1 3 -1.0000 15.7831 0.218898 -71.0154
157 1 2 0.0000 12.6817 3.3920197 -74.2797
158 1 2 0.0000 15.230499 5.17026 -74.173195
159 1 7 0.0000 9.88833 3.59973 -75.8744
160 1 6 0.0000 7.80603 4.5936003 -74.3987
161 1 12 0.0000 11.0957 2.99499 -78.723694
162 1 6 0.0000 13.073 6.09946 -78.143
163 1 1 1.0000 11.7432 8.39487 -78.588
164 1 12 0.0000 11.5466 -0.232362 -78.4494
165 1 6 0.0000 14.5497 -0.166309 -77.877495
166 1 1 1.0000 15.6854 -1.09533 -75.3389
167 1 12 0.0000 8.62545 -0.817728 -77.67
168 1 14 0.0000 7.3462896 -3.0559099 -76.3805
169 1 14 0.0000 4.93631 -3.7635202 -75.5733
170 1 15 0.0000 6.96472 -5.65103 -75.7492
171 1 2 0.0000 6.59504 0.364514 -79.8209
172 1 8 0.0000 3.92465 -0.63812006 -79.5383
173 1 7 0.0000 6.57954 0.32451397 -83.22099
174 1 6 0.0000 8.57185 -1.3780799 -84.7338
175 1 12 0.0000 8.522531 2.86468 -83.1023
176 1 2 0.0000 6.2173405 5.3340797 -81.11861
177 1 16 0.0000 6.4502196 6.08633 -78.941795
178 1 2 0.0000 4.84794 6.89766 -83.4787
179 1 6 0.0000 5.97237 5.55146 -85.773
180 1 1 1.0000 6.2334595 3.63634 -87.7935
181 1 2 0.0000 2.34804 8.93215 -83.464294
182 1 13 0.0000 2.1647902 9.0678005 -87.25
183 1 2 0.0000 2.66052 10.942301 -80.7479
184 1 8 0.0000 1.61716 13.6331 -80.9499
185 1 2 0.0000 4.11459 11.226999 -77.8464
186 1 10 0.0000 3.34235 13.667999 -76.596
187 1 10 0.0000 4.34147 15.717401 -75.1715
188 1 10 0.0000 1.99847 15.428801 -75.751
189 1 11 0.0000 7.32748 10.713 -76.113
190 1 2 0.0000 9.38097 9.47954 -73.7511
191 1 2 0.0000 11.426001 8.00189 -71.4846
192 1 8 0.0000 12.768101 10.156799 -69.8551
193 1 2 0.0000 11.803301 4.6685 -68.5967
194 1 6 0.0000 14.583301 5.12387 -69.274605
195 1 1 1.0000 16.907299 4.119 -68.8868
196 1 2 0.0000 15.4712 1.26295 -65.8854
197 1 6 0.0000 17.8146 2.3491302 -63.857098
198 1 1 1.0000 17.2087 3.30418 -61.028297
199 1 4 0.0000 14.373501 -1.26009 -63.746
200 1 6 0.0000 11.7045 -3.59798 -62.213203
201 1 1 1.0000 8.99107 -5.13286 -61.786
202 1 4 0.0000 13.076 0.90919703 -61.641403
203 1 16 0.0000 11.817599 0.422058 -59.460102
204 1 4 0.0000 12.0835 3.1005402 -63.973698
205 1 3 -1.0000 15.064899 5.9478097 -64.6594
206 1 4 0.0000 10.493799 0.794186 -65.7514
207 1 7 0.0000 11.7692 -1.22398 -67.5491
208 1 1 1.0000 12.915501 -3.55116 -69.8166
209 1 7 0.0000 8.99753 -0.314902 -63.1958
210 1 3 -1.0000 7.1758404 -1.5863401 -59.2754
211 1 7 0.0000 7.12763 2.3382201 -62.283703
212 1 3 -1.0000 6.1601696 -0.446409 -59.8097
213 1 7 0.0000 5.61902 2.7354898 -65.2493
214 1 8 0.0000 6.9476995 5.69522 -65.5073
215 1 7 0.0000 4.28884 -0.028519701 -65.1025
216 1 8 0.0000 5.13205 -2.99789 -64.6318
217 1 13 0.0000 2.43189 0.87918603 -62.3284
218 1 7 0.0000 0.735 2.97598 -64.0372
219 1 14 0.0000 1.4596701 5.38055 -65.6804
220 1 14 0.0000 2.27029 6.63317 -67.764
221 1 15 0.0000 0.648567 8.00254 -66.0703
222 1 7 0.0000 -0.703583 0.76289 -65.718094
223 1 8 0.0000 0.28982702 -2.21529 -66.616
224 1 7 0.0000 -1.9607999 -0.844016 -62.8433
225 1 6 0.0000 0.61318505 -3.40552 -61.8845
226 1 1 1.0000 3.39111 -4.3651 -61.017097
227 1 9 0.0000 -3.1011999 1.6813099 -61.6994
228 1 6 0.0000 -3.04064 2.02719 -58.313698
229 1 1 1.0000 -4.24225 2.07536 -55.920403
230 1 7 0.0000 -5.40955 2.2458699 -64.1466
231 1 9 0.0000 -6.90124 -0.53545 -64.2194
232 1 16 0.0000 -8.77965 -1.41519 -66.2952
233 1 9 0.0000 -7.9922004 -0.39893 -61.5554
234 1 2 0.0000 -7.1620297 -1.7647899 -58.3416
235 1 3 -1.0000 -7.7483897 2.91715 -60.5381
236 1 3 -1.0000 -7.9153004 4.67206 -57.4922

Bonds

1 1 1 2
2 1 31 33
3 1 33 34
4 1 34 36
5 1 36 38
6 1 38 42
7 1 42 44
8 1 44 46
9 1 46 48
10 1 48 51
11 1 51 52
12 1 52 53
13 1 53 56
14 1 56 60
15 1 60 63
16 1 63 65
17 1 65 66
18 1 66 68
19 1 68 70
20 1 70 72
21 1 72 76
22 1 76 77
23 1 77 79
24 1 79 83
25 1 83 84
26 1 84 87
27 1 87 90
28 1 90 92
29 1 92 93
30 1 93 95
31 1 95 96
32 1 96 98
33 1 98 99
34 1 99 103
35 1 103 105
36 1 105 109
37 1 121 124
38 1 124 125
39 1 125 127
40 1 127 129
41 1 129 134
42 1 153 155
43 1 155 157
44 1 171 173
45 1 173 175
46 1 175 176
47 1 176 178
48 1 178 181
49 1 181 183
50 1 183 185
51 1 185 189
52 1 189 190
53 1 190 191
54 1 191 193
55 1 193 196
56 2 2 3
57 3 6 7
58 4 8 9
59 5 9 10
60 4 12 13
61 5 13 14
62 4 15 16
63 5 16 17
64 6 20 21
65 3 26 27
66 4 28 29
67 5 29 30
68 6 31 32
69 3 34 35
70 6 36 37
71 2 38 39
72 3 46 47
73 4 48 49
74 5 49 50
75 4 53 54
76 5 54 55
77 2 56 57
78 4 60 61
79 5 61 62
80 7 66 67
81 8 68 69
82 9 70 71
83 2 72 73
84 9 77 78
85 6 79 80
86 4 84 85
87 10 85 86
88 4 87 88
89 5 88 89
90 3 93 94
91 7 96 97
92 6 99 100
93 8 105 106
94 2 111 112
95 8 114 115
96 4 116 117
97 5 117 118
98 8 119 120
99 4 121 122
100 5 122 123
101 11 129 130
102 4 134 135
103 5 135 136
104 3 137 138
105 3 139 140
106 9 143 144
107 12 145 146
108 3 147 148
109 8 149 150
110 9 153 154
111 3 155 156
112 8 157 158
113 7 159 160
114 4 161 162
115 5 162 163
116 4 164 165
117 5 165 166
118 8 167 168
119 7 173 174
120 4 178 179
121 5 179 180
122 12 181 182
123 6 185 186
124 4 193 194
125 5 194 195
126 4 196 197
127 5 197 198
128 4 199 200
129 5 200 201
130 3 204 205
131 4 206 207
132 10 207 208
133 3 209 210
134 2 211 212
135 9 213 214
136 8 218 219
137 9 222 223
138 4 224 225
139 5 225 226
140 4 227 228
141 5 228 229
142 8 233 234
143 3 235 236
144 13 2 4
145 14 4 6
146 14 6 8
147 14 8 11
148 14 11 12
149 14 12 15
150 14 15 18
151 14 18 20
152 14 20 24
153 14 24 26
154 14 26 28
155 13 28 31
156 13 109 111
157 14 111 113
158 14 113 114
159 14 114 116
160 14 116 119
161 13 119 121
162 13 134 137
163 14 137 139
164 14 139 141
165 14 141 143
166 14 143 145
167 14 145 147
168 14 147 149
169 13 149 153
170 13 157 159
171 14 159 161
172 14 161 164
173 14 164 167
174 13 167 171
175 13 196 199
176 14 199 202
177 14 202 204
178 14 204 206
179 14 206 209
180 14 209 211
181 14 211 213
182 14 213 215
183 14 215 217
184 14 217 218
185 14 218 222
186 14 222 224
187 14 224 227
188 14 227 230
189 14 230 231
190 14 231 233
191 13 233 235
192 15 4 5
193 14 18 19
194 16 21 22
195 16 21 23
196 16 22 23
197 15 24 25
198 16 39 40
199 16 39 41
200 16 40 41
201 17 42 43
202 15 44 45
203 16 57 58
204 16 57 59
205 16 58 59
206 17 63 64
207 16 73 74
208 16 73 75
209 16 74 75
210 16 80 81
211 16 80 82
212 16 81 82
213 17 90 91
214 16 100 101
215 16 100 102
216 16 101 102
217 17 103 104
218 16 106 107
219 16 106 108
220 16 107 108
221 17 109 110
222 14 125 126
223 17 127 128
224 16 130 131
225 16 130 132
226 16 131 132
227 16 131 133
228 16 132 133
229 17 141 142
230 16 150 151
231 16 150 152
232 16 151 152
233 16 168 169
234 16 168 170
235 16 169 170
236 14 171 172
237 17 176 177
238 14 183 184
239 16 186 187
240 16 186 188
241 16 187 188
242 14 191 192
243 17 202 203
244 14 215 216
245 16 219 220
246 16 219 221
247 16 220 221
248 17 231 232

Angles

1 1 1 2 4
2 1 2 4 6
3 2 4 6 8
4 2 6 8 11
5 2 8 11 12
6 2 11 12 15
7 2 12 15 18
8 2 15 18 20
9 2 18 20 24
10 2 20 24 26
11 2 24 26 28
12 3 26 28 31
13 3 28 31 33
14 3 31 33 34
15 3 33 34 36
16 3 34 36 38
17 3 36 38 42
18 1 38 42 44
19 1 42 44 46
20 3 44 46 48
21 3 46 48 51
22 3 48 51 52
23 3 51 52 53
24 1 52 53 56
25 1 53 56 60
26 1 56 60 63
27 1 60 63 65
28 4 63 65 66
29 1 65 66 68
30 1 66 68 70
31 3 68 70 72
32 3 70 72 76
33 3 72 76 77
34 3 76 77 79
35 3 77 79 83
36 3 79 83 84
37 3 83 84 87
38 3 84 87 90
39 3 87 90 92
40 3 90 92 93
41 3 92 93 95
42 1 93 95 96
43 3 95 96 98
44 3 96 98 99
45 3 98 99 103
46 1 99 103 105
47 1 103 105 109
48 1 105 109 111
49 1 109 111 113
50 2 111 113 114
51 2 113 114 116
52 2 114 116 119
53 1 116 119 121
54 1 119 121 124
55 1 121 124 125
56 1 124 125 127
57 1 125 127 129
58 1 127 129 134
59 1 129 134 137
60 4 134 137 139
61 2 137 139 141
62 2 139 141 143
63 2 141 143 145
64 2 143 145 147
65 2 145 147 149
66 3 147 149 153
67 3 149 153 155
68 3 153 155 157
69 3 155 157 159
70 5 157 159 161
71 5 159 161 164
72 2 161 164 167
73 4 164 167 171
74 4 167 171 173
75 3 171 173 175
76 3 173 175 176
77 3 175 176 178
78 1 176 178 181
79 1 178 181 183
80 1 181 183 185
81 1 183 185 189
82 1 185 189 190
83 1 189 190 191
84 1 190 191 193
85 1 191 193 196
86 1 193 196 199
87 4 196 199 202
88 2 199 202 204
89 2 202 204 206
90 2 204 206 209
91 2 206 209 211
92 2 209 211 213
93 2 211 213 215
94 2 213 215 217
95 2 215 217 218
96 2 217 218 222
97 2 218 222 224
98 2 222 224 227
99 2 224 227 230
100 2 227 230 231
101 2 230 231 233
102 1 231 233 235
103 6 1 2 3
104 6 2 4 5
105 6 4 6 7
106 6 6 8 9
107 6 11 12 13
108 6 12 15 16
109 6 15 18 19
110 6 18 20 21
111 6 20 24 25
112 6 24 26 27
113 6 26 28 29
114 6 28 31 32
115 6 33 34 35
116 6 34 36 37
117 6 36 38 39
118 6 38 42 43
119 6 42 44 45
120 6 44 46 47
121 6 46 48 49
122 6 52 53 54
123 6 53 56 57
124 6 56 60 61
125 6 60 63 64
126 6 65 66 67
127 6 66 68 69
128 6 68 70 71
129 6 70 72 73
130 6 76 77 78
131 6 77 79 80
132 6 83 84 85
133 6 84 87 88
134 6 87 90 91
135 6 92 93 94
136 6 95 96 97
137 6 98 99 100
138 6 99 103 104
139 6 103 105 106
140 6 105 109 110
141 6 109 111 112
142 6 113 114 115
143 6 114 116 117
144 6 116 119 120
145 6 119 121 122
146 6 124 125 126
147 6 125 127 128
148 6 127 129 130
149 6 129 134 135
150 6 134 137 138
151 6 137 139 140
152 6 139 141 142
153 6 141 143 144
154 6 143 145 146
155 6 145 147 148
156 6 147 149 150
157 6 149 153 154
158 6 153 155 156
159 6 155 157 158
160 6 157 159 160
161 6 159 161 162
162 6 161 164 165
163 6 164 167 168
164 6 167 171 172
165 6 171 173 174
166 6 175 176 177
167 6 176 178 179
168 6 178 181 182
169 6 181 183 184
170 6 183 185 186
171 6 190 191 192
172 6 191 193 194
173 6 193 196 197
174 6 196 199 200
175 6 199 202 203
176 6 202 204 205
177 6 204 206 207
178 6 206 209 210
179 6 209 211 212
180 6 211 213 214
181 6 213 215 216
182 6 217 218 219
183 6 218 222 223
184 6 222 224 225
185 6 224 227 228
186 6 230 231 232
187 6 231 233 234
188 6 233 235 236
189 7 8 9 10
190 7 12 13 14
191 7 15 16 17
192 8 20 21 22
193 8 20 21 23
194 7 28 29 30
195 8 38 39 40
196 8 38 39 41
197 7 48 49 50
198 7 53 54 55
199 8 56 57 58
200 8 56 57 59
201 7 60 61 62
202 8 72 73 74
203 8 72 73 75
204 8 79 80 81
205 8 79 80 82
206 7 84 85 86
207 7 87 88 89
208 8 99 100 101
209 8 99 100 102
210 8 105 106 107
211 8 105 106 108
212 7 116 117 118
213 7 121 122 123
214 9 129 130 131
215 10 129 130 132
216 7 134 135 136
217 8 149 150 151
218 8 149 150 152
219 7 161 162 163
220 7 164 165 166
221 8 167 168 169
222 8 167 168 170
223 7 178 179 180
224 8 185 186 187
225 8 185 186 188
226 7 193 194 195
227 7 196 197 198
228 7 199 200 201
229 7 206 207 208
230 8 218 219 220
231 8 218 219 221
232 7 224 225 226
233 7 227 228 229

Dihedrals

1 1 4 6 8 11
2 1 6 8 11 12
3 1 8 11 12 15
4 1 11 12 15 18
5 1 12 15 18 20
6 1 15 18 20 24
7 1 18 20 24 26
8 1 20 24 26 28
9 1 111 113 114 116
10 1 113 114 116 119
11 1 137 139 141 143
12 1 139 141 143 145
13 1 141 143 145 147
14 1 143 145 147 149
15 1 159 161 164 167
16 1 199 202 204 206
17 1 202 204 206 209
18 1 204 206 209 211
19 1 206 209 211 213
20 1 209 211 213 215
21 1 211 213 215 217
22 1 213 215 217 218
23 1 215 217 218 222
24 1 217 218 222 224
25 1 218 222 224 227
26 1 222 224 227 230
27 1 224 227 230 231
28 1 227 230 231 233

Impropers

1 1 20 22 23 21
2 1 38 40 41 39
3 1 56 58 59 57
4 1 72 74 75 73
5 1 79 81 82 80
6 1 99 101 102 100
7 1 105 107 108 106
8 1 129 131 132 130
9 2 130 131 133 132
10 1 149 151 152 150
11 1 167 169 170 168
12 1 185 187 188 186
13 1 218 220 221 219

