comment

236 atoms
248 bonds
233 angles
28 dihedrals
13 impropers

17 atom types
17 bond types
10 angle types
1 dihedral types
2 improper types

-40.5 40.5 xlo xhi
-40.5 40.5 ylo yhi
-190.0 190.0 zlo zhi

Masses

1 72.0
2 72.0
3 72.0
4 72.0
5 72.0
6 72.0
7 72.0
8 72.0
9 72.0
10 45.0
11 72.0
12 72.0
13 72.0
14 45.0
15 45.0
16 72.0
17 45.0

PairIJ Coeffs

1 1 1.19503 4.699999999999999
1 2 1.3384336 4.699999999999999
1 3 1.3384336 4.699999999999999
1 4 0.956024 4.699999999999999
1 5 0.478012 4.699999999999999
1 6 0.5497137999999999 4.699999999999999
1 7 0.836521 4.699999999999999
1 8 0.478012 4.699999999999999
1 9 1.19503 4.699999999999999
1 10 0.7409186 4.699999999999999
1 11 1.3384336 4.699999999999999
1 12 1.19503 4.699999999999999
1 13 0.7409186 4.699999999999999
1 14 0.6453162 4.699999999999999
1 15 1.19503 4.699999999999999
1 16 1.19503 4.699999999999999
1 17 0.956024 4.699999999999999
2 2 1.3384336 4.699999999999999
2 3 1.3384336 4.699999999999999
2 4 1.19503 4.699999999999999
2 5 0.5497137999999999 4.699999999999999
2 6 0.6453162 4.699999999999999
2 7 0.836521 4.699999999999999
2 8 0.478012 4.699999999999999
2 9 1.19503 4.699999999999999
2 10 0.7409186 4.699999999999999
2 11 1.3384336 4.699999999999999
2 12 1.19503 4.699999999999999
2 13 0.7409186 4.699999999999999
2 14 0.6453162 4.699999999999999
2 15 1.3384336 4.699999999999999
2 16 1.3384336 4.699999999999999
2 17 1.19503 4.699999999999999
3 3 1.19503 4.699999999999999
3 4 1.19503 4.699999999999999
3 5 0.478012 4.699999999999999
3 6 0.5497137999999999 4.699999999999999
3 7 0.836521 4.699999999999999
3 8 0.478012 4.699999999999999
3 9 0.956024 4.699999999999999
3 10 0.7409186 4.699999999999999
3 11 1.3384336 4.699999999999999
3 12 1.19503 4.699999999999999
3 13 0.7409186 4.699999999999999
3 14 0.6453162 4.699999999999999
3 15 1.19503 4.699999999999999
3 16 1.19503 4.699999999999999
3 17 1.19503 4.699999999999999
4 4 0.956024 4.699999999999999
4 5 0.6453162 4.699999999999999
4 6 0.6453162 4.699999999999999
4 7 0.836521 4.699999999999999
4 8 0.6453162 4.699999999999999
4 9 1.075527 4.699999999999999
4 10 0.836521 4.699999999999999
4 11 0.956024 4.699999999999999
4 12 1.075527 4.699999999999999
4 13 0.836521 4.699999999999999
4 14 0.7409186 4.699999999999999
4 15 1.075527 4.699999999999999
4 16 1.075527 4.699999999999999
4 17 0.956024 4.699999999999999
5 5 0.836521 4.699999999999999
5 6 0.836521 4.699999999999999
5 7 0.7409186 4.699999999999999
5 8 0.836521 4.699999999999999
5 9 0.6453162 4.699999999999999
5 10 0.7409186 4.699999999999999
5 11 0.5497137999999999 4.699999999999999
5 12 0.6453162 4.699999999999999
5 13 0.7409186 4.699999999999999
5 14 0.7409186 4.699999999999999
5 15 0.7409186 4.699999999999999
5 16 0.7409186 4.699999999999999
5 17 0.6453162 4.699999999999999
6 6 0.836521 4.699999999999999
6 7 0.836521 4.699999999999999
6 8 0.836521 4.699999999999999
6 9 0.6453162 4.699999999999999
6 10 0.836521 4.699999999999999
6 11 0.6453162 4.699999999999999
6 12 0.6453162 4.699999999999999
6 13 0.836521 4.699999999999999
6 14 0.836521 4.699999999999999
6 15 0.836521 4.699999999999999
6 16 0.836521 4.699999999999999
6 17 0.6453162 4.699999999999999
7 7 0.836521 4.699999999999999
7 8 0.6453162 4.699999999999999
7 9 0.836521 4.699999999999999
7 10 0.836521 4.699999999999999
7 11 0.836521 4.699999999999999
7 12 0.836521 4.699999999999999
7 13 0.836521 4.699999999999999
7 14 0.836521 4.699999999999999
7 15 0.956024 4.699999999999999
7 16 0.956024 4.699999999999999
7 17 0.836521 4.699999999999999
8 8 0.836521 4.699999999999999
8 9 0.6453162 4.699999999999999
8 10 0.7409186 4.699999999999999
8 11 0.478012 4.699999999999999
8 12 0.6453162 4.699999999999999
8 13 0.7409186 4.699999999999999
8 14 0.7409186 4.699999999999999
8 15 0.6453162 4.699999999999999
8 16 0.6453162 4.699999999999999
8 17 0.6453162 4.699999999999999
9 9 0.956024 4.699999999999999
9 10 0.836521 4.699999999999999
9 11 0.956024 4.699999999999999
9 12 1.075527 4.699999999999999
9 13 0.836521 4.699999999999999
9 14 0.7409186 4.699999999999999
9 15 1.075527 4.699999999999999
9 16 1.075527 4.699999999999999
9 17 1.075527 4.699999999999999
10 10 0.62739075 4.3
10 11 0.7409186 4.699999999999999
10 12 0.836521 4.699999999999999
10 13 0.836521 4.699999999999999
10 14 0.62739075 4.3
10 15 0.62739075 4.3
10 16 0.836521 4.699999999999999
10 17 0.62739075 4.3
11 11 1.19503 4.699999999999999
11 12 0.956024 4.699999999999999
11 13 0.7409186 4.699999999999999
11 14 0.6453162 4.699999999999999
11 15 1.075527 4.699999999999999
11 16 1.075527 4.699999999999999
11 17 0.956024 4.699999999999999
12 12 1.075527 4.699999999999999
12 13 0.836521 4.699999999999999
12 14 0.7409186 4.699999999999999
12 15 1.075527 4.699999999999999
12 16 1.075527 4.699999999999999
12 17 1.075527 4.699999999999999
13 13 0.836521 4.699999999999999
13 14 0.836521 4.699999999999999
13 15 0.836521 4.699999999999999
13 16 0.836521 4.699999999999999
13 17 0.836521 4.699999999999999
14 14 0.62739075 4.3
14 15 0.62739075 4.3
14 16 0.836521 4.699999999999999
14 17 0.5556889500000001 4.3
15 15 0.80664525 4.3
15 16 1.075527 4.699999999999999
15 17 0.80664525 4.3
16 16 1.075527 4.699999999999999
16 17 1.075527 4.699999999999999
17 17 0.7170179999999999 4.3

Bond Coeffs

1 1.4937875 3.5
2 8.962725 3.2
3 5.97515 4.0
4 5.97515 3.3000000000000003
5 5.97515 2.8000000000000003
6 8.962725 3.1
7 8.962725 3.0
8 5.97515 3.2
9 8.962725 3.3000000000000003
10 5.97515 3.4000000000000004
11 5.97515 3.0
12 2.987575 4.0
13 11.9503 3.3000000000000003
14 11.9503 3.1
15 11.9503 2.6500000000000004
16 11.9503 2.7
17 11.9503 2.6

Angle Coeffs

1 2.39006 127
2 83.6521 96
3 2.39006 100
4 2.39006 130
5 11.9503 98
6 2.987575 100
7 2.987575 180
8 5.97515 150
9 5.97515 210
10 5.97515 90

Dihedral Coeffs

1 95.6024 1 -120 0

Improper Coeffs

1 5.97515 0
2 23.9006 0

Atoms

1 1 1 1.0000 1.2549999 -0.027 -48.818
2 1 2 0.0000 0.122659996 0.22508901 -51.1553
3 1 3 -1.0000 -1.18274 -0.883044 -53.411003
4 1 4 0.0000 1.7824299 2.14329 -54.5819
5 1 5 0.0000 2.71805 0.83106506 -56.2845
6 1 4 0.0000 1.6355901 5.34152 -54.8133
7 1 3 -1.0000 -2.01313 5.9589 -55.521004
8 1 4 0.0000 4.39227 5.88263 -56.3316
9 1 6 0.0000 7.2851505 4.40535 -55.494698
10 1 1 1.0000 7.77858 1.50228 -55.9366
11 1 4 0.0000 3.87527 4.89993 -59.409298
12 1 7 0.0000 1.6196101 7.28288 -60.609898
13 1 6 0.0000 -1.79304 6.93124 -61.1908
14 1 1 1.0000 -4.19372 6.3785305 -60.396
15 1 7 0.0000 3.4686801 9.835159 -59.9118
16 1 6 0.0000 2.18579 11.2589 -57.2254
17 1 1 1.0000 -0.152022 9.958 -55.9045
18 1 7 0.0000 6.10371 9.49639 -62.019802
19 1 8 0.0000 8.67319 8.0238 -60.898598
20 1 9 0.0000 4.7589498 10.0977 -64.6655
21 1 10 0.0000 5.65217 9.405271 -67.6477
22 1 10 0.0000 5.19009 9.49621 -70.3048
23 1 10 0.0000 7.61464 8.94514 -69.040596
24 1 9 0.0000 3.76183 12.8624 -63.8397
25 1 5 0.0000 1.6732 14.2478 -64.2217
26 1 9 0.0000 6.42847 14.0935 -63.070103
27 1 11 0.0000 5.0246296 17.7027 -65.0969
28 1 9 0.0000 8.10569 13.772499 -65.8183
29 1 6 0.0000 10.0081005 11.148 -65.5119
30 1 1 1.0000 11.2711 8.96963 -64.5926
31 1 12 0.0000 6.8498898 14.029599 -69.201195
32 1 13 0.0000 8.83312 14.0329 -71.4259
33 1 7 0.0000 4.17885 14.4564 -69.767395
34 1 12 0.0000 1.22 12.314301 -68.8525
35 1 11 0.0000 -0.716686 15.985499 -68.7631
36 1 12 0.0000 0.248686 12.1594 -71.4946
37 1 13 0.0000 -1.2720599 15.217299 -71.5265
38 1 2 0.0000 -0.931611 8.65802 -71.4176
39 1 14 0.0000 1.67428 7.37939 -72.3499
40 1 15 0.0000 3.47363 5.5453005 -72.1104
41 1 15 0.0000 3.97152 7.42748 -74.2693
42 1 2 0.0000 -4.61407 7.59056 -71.5045
43 1 16 0.0000 -5.18043 8.12153 -74.0276
44 1 2 0.0000 -4.96248 7.0470295 -68.1677
45 1 5 0.0000 -3.21254 5.56653 -66.9527
46 1 2 0.0000 -7.21704 6.4067 -65.1648
47 1 3 -1.0000 -5.90046 9.43068 -63.3818
48 1 12 0.0000 -11.0809 3.99051 -64.5716
49 1 6 0.0000 -12.0927 2.6567001 -61.553997
50 1 1 1.0000 -11.981 2.52476 -58.5277
51 1 12 0.0000 -12.5212 5.71805 -67.8663
52 1 2 0.0000 -10.079499 7.6620603 -67.5357
53 1 2 0.0000 -10.2643 10.7651 -66.3979
54 1 6 0.0000 -10.8799 9.04918 -63.088398
55 1 1 1.0000 -9.3128195 7.64606 -61.0438
56 1 2 0.0000 -9.07627 11.9795 -70.0983
57 1 14 0.0000 -10.1799 9.63308 -71.708595
58 1 15 0.0000 -10.1677 7.0611696 -72.637
59 1 15 0.0000 -12.3032 8.23728 -72.1783
60 1 2 0.0000 -5.0951 12.810301 -72.0723
61 1 6 0.0000 -4.01785 12.031 -68.838104
62 1 1 1.0000 -4.2631397 12.3827 -66.3407
63 1 2 0.0000 -3.1599798 13.0322 -75.5116
64 1 16 0.0000 -2.74999 15.309401 -76.8733
65 1 2 0.0000 -1.0405 10.4128 -76.288
66 1 11 0.0000 0.286271 7.85692 -77.3271
67 1 6 0.0000 1.68817 6.43899 -79.8099
68 1 2 0.0000 -1.0887 4.81976 -75.9204
69 1 2 0.0000 -3.8016 4.80882 -77.0855
70 1 2 0.0000 -2.61817 2.88142 -72.0964
71 1 8 0.0000 -0.177905 3.3628 -70.1745
72 1 12 0.0000 -5.9545302 2.4337199 -74.383705
73 1 14 0.0000 -7.4941998 3.4837298 -71.7759
74 1 15 0.0000 -9.54765 2.9850302 -70.633995
75 1 15 0.0000 -7.49269 3.09723 -69.159004
76 1 12 0.0000 -7.2543902 -1.0230399 -73.8045
77 1 2 0.0000 -5.42426 -2.32713 -71.0324
78 1 8 0.0000 -4.29975 -0.480741 -68.792
79 1 12 0.0000 -6.06669 -5.51261 -70.3285
80 1 10 0.0000 -4.91391 -6.07846 -67.3085
81 1 10 0.0000 -2.84437 -5.92239 -65.6167
82 1 10 0.0000 -4.85604 -7.16464 -64.946396
83 1 12 0.0000 -5.96574 -8.17628 -72.7378
84 1 2 0.0000 -5.5362897 -6.66191 -76.2679
85 1 7 0.0000 -3.99048 -4.20064 -75.289604
86 1 1 1.0000 -2.5734901 -0.754731 -75.4696
87 1 2 0.0000 -3.50135 -7.44272 -79.3351
88 1 6 0.0000 -0.780667 -9.39534 -79.6654
89 1 1 1.0000 0.478521 -8.98483 -81.8623
90 1 12 0.0000 -1.90037 -4.15544 -79.7956
91 1 16 0.0000 -0.051676102 -3.69865 -78.2754
92 1 12 0.0000 -4.57951 -3.3892899 -82.431496
93 1 2 0.0000 -6.1227202 -1.3923199 -79.5514
94 1 11 0.0000 -8.92007 -4.00348 -78.231705
95 1 11 0.0000 -8.03445 1.1539199 -79.825905
96 1 7 0.0000 -10.054199 3.53939 -77.0606
97 1 6 0.0000 -11.9407 2.3868802 -75.3197
98 1 12 0.0000 -8.14231 6.44804 -77.364
99 1 2 0.0000 -7.5237203 6.0948095 -81.23241
100 1 10 0.0000 -6.62591 8.39005 -83.020096
101 1 10 0.0000 -5.7374697 8.649071 -85.539795
102 1 10 0.0000 -6.99768 10.6328 -84.1856
103 1 2 0.0000 -4.8624797 3.9631798 -82.2026
104 1 16 0.0000 -5.39201 2.16801 -84.2216
105 1 2 0.0000 -1.75709 5.4979997 -82.4257
106 1 14 0.0000 -2.78368 8.110169 -81.02141
107 1 14 0.0000 -4.5011 9.67072 -79.5021
108 1 15 0.0000 -2.97935 10.7226 -81.56419
109 1 2 0.0000 -0.937508 4.47259 -85.85921
110 1 16 0.0000 -1.7938501 6.2178097 -87.714096
111 1 4 0.0000 1.6218799 2.49227 -85.989
112 1 3 -1.0000 2.2466202 1.4597701 -88.6915
113 1 7 0.0000 2.08535 2.35173 -83.100296
114 1 12 0.0000 -0.546736 0.543105 -82.2165
115 1 2 0.0000 -0.469698 1.38986 -79.1985
116 1 12 0.0000 -0.0594455 -2.23321 -84.13339
117 1 6 0.0000 -2.303 -1.22856 -86.502
118 1 1 1.0000 -2.1370099 0.425237 -89.01221
119 1 9 0.0000 2.93118 -3.18932 -83.0347
120 1 2 0.0000 4.3615904 -3.8394 -86.159294
121 1 2 0.0000 5.10464 -4.94515 -81.0826
122 1 6 0.0000 8.74346 -4.30348 -81.078705
123 1 1 1.0000 10.5449 -5.5311604 -79.0702
124 1 2 0.0000 4.40147 -6.77577 -79.6886
125 1 2 0.0000 2.6570601 -7.6236897 -76.9261
126 1 8 0.0000 3.0106602 -10.6985 -76.2932
127 1 2 0.0000 -0.360716 -8.29629 -74.104095
128 1 16 0.0000 -1.73508 -10.159599 -74.9754
129 1 2 0.0000 -0.92185307 -8.0219 -70.153
130 1 14 0.0000 -0.901488 -5.11467 -70.3505
131 1 17 0.0000 -0.240991 -2.6493 -71.5336
132 1 10 0.0000 0.60775805 -4.80701 -72.9451
133 1 10 0.0000 1.22083 -2.5230699 -73.5252
134 1 2 0.0000 0.191842 -9.15555 -67.6471
135 1 6 0.0000 2.3782299 -11.4818 -67.1202
136 1 1 1.0000 4.0332403 -11.7314005 -64.971
137 1 4 0.0000 2.4566798 -6.7526903 -66.4189
138 1 3 -1.0000 5.1441097 -8.0809 -62.9397
139 1 4 0.0000 5.1081505 -7.62312 -67.703
140 1 3 -1.0000 5.8489504 -7.92616 -63.2204
141 1 4 0.0000 4.42483 -6.1584 -70.6273
142 1 16 0.0000 4.07229 -8.34675 -72.3247
143 1 12 0.0000 4.38087 -3.1310499 -69.3909
144 1 8 0.0000 3.6405501 -0.297578 -70.0677
145 1 9 0.0000 7.68671 -3.2459 -68.6506
146 1 13 0.0000 9.81351 -6.0241003 -66.5795
147 1 9 0.0000 8.66865 -3.5184197 -71.5726
148 1 3 -1.0000 11.7173 -4.14288 -74.3396
149 1 9 0.0000 7.4762 -0.603879 -72.558
150 1 14 0.0000 5.0594997 0.79913306 -74.5638
151 1 14 0.0000 4.00455 2.63113 -76.3294
152 1 15 0.0000 2.8708801 1.67095 -74.5185
153 1 12 0.0000 9.19319 1.5512501 -71.1106
154 1 8 0.0000 7.3224597 3.85731 -69.9961
155 1 12 0.0000 12.2474 1.10231 -72.4726
156 1 3 -1.0000 15.8022 0.253671 -71.0064
157 1 2 0.0000 12.9477005 3.84385 -74.3504
158 1 2 0.0000 15.4391 4.60435 -73.8786
159 1 7 0.0000 10.0283 3.48944 -75.8801
160 1 6 0.0000 7.83091 4.56067 -74.3196
161 1 12 0.0000 11.0248 2.9107 -78.7492
162 1 6 0.0000 13.1382 6.10702 -78.172104
163 1 1 1.0000 11.9602 8.35193 -77.7365
164 1 12 0.0000 11.5173 -0.297586 -78.4199
165 1 6 0.0000 14.5426 -0.124868 -77.788704
166 1 1 1.0000 15.3379 -1.4601899 -75.272
167 1 12 0.0000 8.56797 -0.694824 -77.6989
168 1 14 0.0000 7.22538 -3.11446 -76.5043
169 1 14 0.0000 5.0543804 -3.7553 -75.3704
170 1 15 0.0000 7.04986 -5.6651096 -75.844795
171 1 2 0.0000 6.3478603 0.23236601 -79.7585
172 1 8 0.0000 3.9135501 -0.717428 -79.4633
173 1 7 0.0000 6.68851 0.363477 -83.151
174 1 6 0.0000 8.62962 -1.4245901 -84.592896
175 1 12 0.0000 8.47087 2.888 -83.0486
176 1 2 0.0000 6.0942 5.01025 -80.89461
177 1 16 0.0000 6.51627 6.18491 -78.9195
178 1 2 0.0000 4.9184504 6.51198 -83.3972
179 1 6 0.0000 6.08825 5.61131 -85.695694
180 1 1 1.0000 6.23317 3.39695 -87.7068
181 1 2 0.0000 2.7199502 9.35033 -83.6125
182 1 13 0.0000 2.20283 9.02958 -87.3021
183 1 2 0.0000 2.9601 10.942301 -80.7133
184 1 8 0.0000 1.50391 13.5946 -81.0361
185 1 2 0.0000 4.3629 10.9228 -77.7495
186 1 10 0.0000 3.26427 13.621599 -76.5943
187 1 10 0.0000 4.35433 15.7504 -75.2482
188 1 10 0.0000 2.03372 15.476299 -75.8343
189 1 11 0.0000 7.2025595 10.5785 -76.0901
190 1 2 0.0000 9.37882 9.16099 -73.4575
191 1 2 0.0000 11.5899 7.86433 -71.5124
192 1 8 0.0000 12.7752 10.2529 -69.8097
193 1 2 0.0000 11.915199 5.11704 -68.8882
194 1 6 0.0000 14.481 5.1025496 -69.2294
195 1 1 1.0000 16.803 4.26428 -69.065
196 1 2 0.0000 15.054899 1.2802 -65.9212
197 1 6 0.0000 17.8571 2.23415 -63.794
198 1 1 1.0000 17.176401 3.93083 -61.1948
199 1 4 0.0000 14.348299 -1.30425 -63.7358
200 1 6 0.0000 11.6925 -3.71977 -62.2088
201 1 1 1.0000 8.8919 -5.0249 -61.9224
202 1 4 0.0000 13.0763 0.896782 -61.684998
203 1 16 0.0000 11.7892 0.421686 -59.5018
204 1 4 0.0000 12.091301 3.0289001 -63.959198
205 1 3 -1.0000 15.07 6.03976 -64.7027
206 1 4 0.0000 10.3869 0.748339 -65.720505
207 1 7 0.0000 11.7898 -1.34404 -67.5949
208 1 1 1.0000 13.1057 -3.42607 -69.9401
209 1 7 0.0000 8.95858 -0.315256 -63.1606
210 1 3 -1.0000 7.20397 -1.40734 -59.257797
211 1 7 0.0000 7.16292 2.19952 -62.2986
212 1 3 -1.0000 6.2515697 -0.49518 -59.788097
213 1 7 0.0000 5.64091 2.63391 -65.2601
214 1 8 0.0000 6.9441996 5.80157 -65.4225
215 1 7 0.0000 4.32135 -0.0157171 -65.0235
216 1 8 0.0000 5.14373 -2.95987 -64.6068
217 1 13 0.0000 2.47931 0.857888 -62.2522
218 1 7 0.0000 0.711679 2.9250197 -64.0049
219 1 14 0.0000 1.4481499 5.44944 -65.6933
220 1 14 0.0000 2.27104 6.75622 -67.6929
221 1 15 0.0000 0.565891 7.9149003 -66.093
222 1 7 0.0000 -0.766503 0.723188 -65.7794
223 1 8 0.0000 0.217887 -2.2917202 -66.5291
224 1 7 0.0000 -1.8547299 -0.775569 -62.891598
225 1 6 0.0000 0.655041 -3.41836 -61.9249
226 1 1 1.0000 3.44268 -4.11132 -60.6216
227 1 9 0.0000 -3.1485798 1.6228101 -61.7259
228 1 6 0.0000 -3.0425 2.04999 -58.3646
229 1 1 1.0000 -4.69558 2.0295498 -55.5167
230 1 7 0.0000 -5.3657002 2.34647 -64.1715
231 1 9 0.0000 -6.99805 -0.431472 -64.211
232 1 16 0.0000 -8.8366995 -1.3405501 -66.3406
233 1 9 0.0000 -7.90695 -0.489361 -61.3331
234 1 2 0.0000 -6.7191305 -1.9910599 -59.1754
235 1 3 -1.0000 -7.63164 3.01679 -60.4243
236 1 3 -1.0000 -7.91082 4.8133903 -57.5067

Bonds

1 1 1 2
2 1 31 33
3 1 33 34
4 1 34 36
5 1 36 38
6 1 38 42
7 1 42 44
8 1 44 46
9 1 46 48
10 1 48 51
11 1 51 52
12 1 52 53
13 1 53 56
14 1 56 60
15 1 60 63
16 1 63 65
17 1 65 66
18 1 66 68
19 1 68 70
20 1 70 72
21 1 72 76
22 1 76 77
23 1 77 79
24 1 79 83
25 1 83 84
26 1 84 87
27 1 87 90
28 1 90 92
29 1 92 93
30 1 93 95
31 1 95 96
32 1 96 98
33 1 98 99
34 1 99 103
35 1 103 105
36 1 105 109
37 1 121 124
38 1 124 125
39 1 125 127
40 1 127 129
41 1 129 134
42 1 153 155
43 1 155 157
44 1 171 173
45 1 173 175
46 1 175 176
47 1 176 178
48 1 178 181
49 1 181 183
50 1 183 185
51 1 185 189
52 1 189 190
53 1 190 191
54 1 191 193
55 1 193 196
56 2 2 3
57 3 6 7
58 4 8 9
59 5 9 10
60 4 12 13
61 5 13 14
62 4 15 16
63 5 16 17
64 6 20 21
65 3 26 27
66 4 28 29
67 5 29 30
68 6 31 32
69 3 34 35
70 6 36 37
71 2 38 39
72 3 46 47
73 4 48 49
74 5 49 50
75 4 53 54
76 5 54 55
77 2 56 57
78 4 60 61
79 5 61 62
80 7 66 67
81 8 68 69
82 9 70 71
83 2 72 73
84 9 77 78
85 6 79 80
86 4 84 85
87 10 85 86
88 4 87 88
89 5 88 89
90 3 93 94
91 7 96 97
92 6 99 100
93 8 105 106
94 2 111 112
95 8 114 115
96 4 116 117
97 5 117 118
98 8 119 120
99 4 121 122
100 5 122 123
101 11 129 130
102 4 134 135
103 5 135 136
104 3 137 138
105 3 139 140
106 9 143 144
107 12 145 146
108 3 147 148
109 8 149 150
110 9 153 154
111 3 155 156
112 8 157 158
113 7 159 160
114 4 161 162
115 5 162 163
116 4 164 165
117 5 165 166
118 8 167 168
119 7 173 174
120 4 178 179
121 5 179 180
122 12 181 182
123 6 185 186
124 4 193 194
125 5 194 195
126 4 196 197
127 5 197 198
128 4 199 200
129 5 200 201
130 3 204 205
131 4 206 207
132 10 207 208
133 3 209 210
134 2 211 212
135 9 213 214
136 8 218 219
137 9 222 223
138 4 224 225
139 5 225 226
140 4 227 228
141 5 228 229
142 8 233 234
143 3 235 236
144 13 2 4
145 14 4 6
146 14 6 8
147 14 8 11
148 14 11 12
149 14 12 15
150 14 15 18
151 14 18 20
152 14 20 24
153 14 24 26
154 14 26 28
155 13 28 31
156 13 109 111
157 14 111 113
158 14 113 114
159 14 114 116
160 14 116 119
161 13 119 121
162 13 134 137
163 14 137 139
164 14 139 141
165 14 141 143
166 14 143 145
167 14 145 147
168 14 147 149
169 13 149 153
170 13 157 159
171 14 159 161
172 14 161 164
173 14 164 167
174 13 167 171
175 13 196 199
176 14 199 202
177 14 202 204
178 14 204 206
179 14 206 209
180 14 209 211
181 14 211 213
182 14 213 215
183 14 215 217
184 14 217 218
185 14 218 222
186 14 222 224
187 14 224 227
188 14 227 230
189 14 230 231
190 14 231 233
191 13 233 235
192 15 4 5
193 14 18 19
194 16 21 22
195 16 21 23
196 16 22 23
197 15 24 25
198 16 39 40
199 16 39 41
200 16 40 41
201 17 42 43
202 15 44 45
203 16 57 58
204 16 57 59
205 16 58 59
206 17 63 64
207 16 73 74
208 16 73 75
209 16 74 75
210 16 80 81
211 16 80 82
212 16 81 82
213 17 90 91
214 16 100 101
215 16 100 102
216 16 101 102
217 17 103 104
218 16 106 107
219 16 106 108
220 16 107 108
221 17 109 110
222 14 125 126
223 17 127 128
224 16 130 131
225 16 130 132
226 16 131 132
227 16 131 133
228 16 132 133
229 17 141 142
230 16 150 151
231 16 150 152
232 16 151 152
233 16 168 169
234 16 168 170
235 16 169 170
236 14 171 172
237 17 176 177
238 14 183 184
239 16 186 187
240 16 186 188
241 16 187 188
242 14 191 192
243 17 202 203
244 14 215 216
245 16 219 220
246 16 219 221
247 16 220 221
248 17 231 232

Angles

1 1 1 2 4
2 1 2 4 6
3 2 4 6 8
4 2 6 8 11
5 2 8 11 12
6 2 11 12 15
7 2 12 15 18
8 2 15 18 20
9 2 18 20 24
10 2 20 24 26
11 2 24 26 28
12 3 26 28 31
13 3 28 31 33
14 3 31 33 34
15 3 33 34 36
16 3 34 36 38
17 3 36 38 42
18 1 38 42 44
19 1 42 44 46
20 3 44 46 48
21 3 46 48 51
22 3 48 51 52
23 3 51 52 53
24 1 52 53 56
25 1 53 56 60
26 1 56 60 63
27 1 60 63 65
28 4 63 65 66
29 1 65 66 68
30 1 66 68 70
31 3 68 70 72
32 3 70 72 76
33 3 72 76 77
34 3 76 77 79
35 3 77 79 83
36 3 79 83 84
37 3 83 84 87
38 3 84 87 90
39 3 87 90 92
40 3 90 92 93
41 3 92 93 95
42 1 93 95 96
43 3 95 96 98
44 3 96 98 99
45 3 98 99 103
46 1 99 103 105
47 1 103 105 109
48 1 105 109 111
49 1 109 111 113
50 2 111 113 114
51 2 113 114 116
52 2 114 116 119
53 1 116 119 121
54 1 119 121 124
55 1 121 124 125
56 1 124 125 127
57 1 125 127 129
58 1 127 129 134
59 1 129 134 137
60 4 134 137 139
61 2 137 139 141
62 2 139 141 143
63 2 141 143 145
64 2 143 145 147
65 2 145 147 149
66 3 147 149 153
67 3 149 153 155
68 3 153 155 157
69 3 155 157 159
70 5 157 159 161
71 5 159 161 164
72 2 161 164 167
73 4 164 167 171
74 4 167 171 173
75 3 171 173 175
76 3 173 175 176
77 3 175 176 178
78 1 176 178 181
79 1 178 181 183
80 1 181 183 185
81 1 183 185 189
82 1 185 189 190
83 1 189 190 191
84 1 190 191 193
85 1 191 193 196
86 1 193 196 199
87 4 196 199 202
88 2 199 202 204
89 2 202 204 206
90 2 204 206 209
91 2 206 209 211
92 2 209 211 213
93 2 211 213 215
94 2 213 215 217
95 2 215 217 218
96 2 217 218 222
97 2 218 222 224
98 2 222 224 227
99 2 224 227 230
100 2 227 230 231
101 2 230 231 233
102 1 231 233 235
103 6 1 2 3
104 6 2 4 5
105 6 4 6 7
106 6 6 8 9
107 6 11 12 13
108 6 12 15 16
109 6 15 18 19
110 6 18 20 21
111 6 20 24 25
112 6 24 26 27
113 6 26 28 29
114 6 28 31 32
115 6 33 34 35
116 6 34 36 37
117 6 36 38 39
118 6 38 42 43
119 6 42 44 45
120 6 44 46 47
121 6 46 48 49
122 6 52 53 54
123 6 53 56 57
124 6 56 60 61
125 6 60 63 64
126 6 65 66 67
127 6 66 68 69
128 6 68 70 71
129 6 70 72 73
130 6 76 77 78
131 6 77 79 80
132 6 83 84 85
133 6 84 87 88
134 6 87 90 91
135 6 92 93 94
136 6 95 96 97
137 6 98 99 100
138 6 99 103 104
139 6 103 105 106
140 6 105 109 110
141 6 109 111 112
142 6 113 114 115
143 6 114 116 117
144 6 116 119 120
145 6 119 121 122
146 6 124 125 126
147 6 125 127 128
148 6 127 129 130
149 6 129 134 135
150 6 134 137 138
151 6 137 139 140
152 6 139 141 142
153 6 141 143 144
154 6 143 145 146
155 6 145 147 148
156 6 147 149 150
157 6 149 153 154
158 6 153 155 156
159 6 155 157 158
160 6 157 159 160
161 6 159 161 162
162 6 161 164 165
163 6 164 167 168
164 6 167 171 172
165 6 171 173 174
166 6 175 176 177
167 6 176 178 179
168 6 178 181 182
169 6 181 183 184
170 6 183 185 186
171 6 190 191 192
172 6 191 193 194
173 6 193 196 197
174 6 196 199 200
175 6 199 202 203
176 6 202 204 205
177 6 204 206 207
178 6 206 209 210
179 6 209 211 212
180 6 211 213 214
181 6 213 215 216
182 6 217 218 219
183 6 218 222 223
184 6 222 224 225
185 6 224 227 228
186 6 230 231 232
187 6 231 233 234
188 6 233 235 236
189 7 8 9 10
190 7 12 13 14
191 7 15 16 17
192 8 20 21 22
193 8 20 21 23
194 7 28 29 30
195 8 38 39 40
196 8 38 39 41
197 7 48 49 50
198 7 53 54 55
199 8 56 57 58
200 8 56 57 59
201 7 60 61 62
202 8 72 73 74
203 8 72 73 75
204 8 79 80 81
205 8 79 80 82
206 7 84 85 86
207 7 87 88 89
208 8 99 100 101
209 8 99 100 102
210 8 105 106 107
211 8 105 106 108
212 7 116 117 118
213 7 121 122 123
214 9 129 130 131
215 10 129 130 132
216 7 134 135 136
217 8 149 150 151
218 8 149 150 152
219 7 161 162 163
220 7 164 165 166
221 8 167 168 169
222 8 167 168 170
223 7 178 179 180
224 8 185 186 187
225 8 185 186 188
226 7 193 194 195
227 7 196 197 198
228 7 199 200 201
229 7 206 207 208
230 8 218 219 220
231 8 218 219 221
232 7 224 225 226
233 7 227 228 229

Dihedrals

1 1 4 6 8 11
2 1 6 8 11 12
3 1 8 11 12 15
4 1 11 12 15 18
5 1 12 15 18 20
6 1 15 18 20 24
7 1 18 20 24 26
8 1 20 24 26 28
9 1 111 113 114 116
10 1 113 114 116 119
11 1 137 139 141 143
12 1 139 141 143 145
13 1 141 143 145 147
14 1 143 145 147 149
15 1 159 161 164 167
16 1 199 202 204 206
17 1 202 204 206 209
18 1 204 206 209 211
19 1 206 209 211 213
20 1 209 211 213 215
21 1 211 213 215 217
22 1 213 215 217 218
23 1 215 217 218 222
24 1 217 218 222 224
25 1 218 222 224 227
26 1 222 224 227 230
27 1 224 227 230 231
28 1 227 230 231 233

Impropers

1 1 20 22 23 21
2 1 38 40 41 39
3 1 56 58 59 57
4 1 72 74 75 73
5 1 79 81 82 80
6 1 99 101 102 100
7 1 105 107 108 106
8 1 129 131 132 130
9 2 130 131 133 132
10 1 149 151 152 150
11 1 167 169 170 168
12 1 185 187 188 186
13 1 218 220 221 219

