comment

236 atoms
248 bonds
233 angles
28 dihedrals
13 impropers

17 atom types
17 bond types
10 angle types
1 dihedral types
2 improper types

-40.5 40.5 xlo xhi
-40.5 40.5 ylo yhi
-190.0 190.0 zlo zhi

Masses

1 72.0
2 72.0
3 72.0
4 72.0
5 72.0
6 72.0
7 72.0
8 72.0
9 72.0
10 45.0
11 72.0
12 72.0
13 72.0
14 45.0
15 45.0
16 72.0
17 45.0

PairIJ Coeffs

1 1 1.19503 4.699999999999999
1 2 1.3384336 4.699999999999999
1 3 1.3384336 4.699999999999999
1 4 0.956024 4.699999999999999
1 5 0.478012 4.699999999999999
1 6 0.5497137999999999 4.699999999999999
1 7 0.836521 4.699999999999999
1 8 0.478012 4.699999999999999
1 9 1.19503 4.699999999999999
1 10 0.7409186 4.699999999999999
1 11 1.3384336 4.699999999999999
1 12 1.19503 4.699999999999999
1 13 0.7409186 4.699999999999999
1 14 0.6453162 4.699999999999999
1 15 1.19503 4.699999999999999
1 16 1.19503 4.699999999999999
1 17 0.956024 4.699999999999999
2 2 1.3384336 4.699999999999999
2 3 1.3384336 4.699999999999999
2 4 1.19503 4.699999999999999
2 5 0.5497137999999999 4.699999999999999
2 6 0.6453162 4.699999999999999
2 7 0.836521 4.699999999999999
2 8 0.478012 4.699999999999999
2 9 1.19503 4.699999999999999
2 10 0.7409186 4.699999999999999
2 11 1.3384336 4.699999999999999
2 12 1.19503 4.699999999999999
2 13 0.7409186 4.699999999999999
2 14 0.6453162 4.699999999999999
2 15 1.3384336 4.699999999999999
2 16 1.3384336 4.699999999999999
2 17 1.19503 4.699999999999999
3 3 1.19503 4.699999999999999
3 4 1.19503 4.699999999999999
3 5 0.478012 4.699999999999999
3 6 0.5497137999999999 4.699999999999999
3 7 0.836521 4.699999999999999
3 8 0.478012 4.699999999999999
3 9 0.956024 4.699999999999999
3 10 0.7409186 4.699999999999999
3 11 1.3384336 4.699999999999999
3 12 1.19503 4.699999999999999
3 13 0.7409186 4.699999999999999
3 14 0.6453162 4.699999999999999
3 15 1.19503 4.699999999999999
3 16 1.19503 4.699999999999999
3 17 1.19503 4.699999999999999
4 4 0.956024 4.699999999999999
4 5 0.6453162 4.699999999999999
4 6 0.6453162 4.699999999999999
4 7 0.836521 4.699999999999999
4 8 0.6453162 4.699999999999999
4 9 1.075527 4.699999999999999
4 10 0.836521 4.699999999999999
4 11 0.956024 4.699999999999999
4 12 1.075527 4.699999999999999
4 13 0.836521 4.699999999999999
4 14 0.7409186 4.699999999999999
4 15 1.075527 4.699999999999999
4 16 1.075527 4.699999999999999
4 17 0.956024 4.699999999999999
5 5 0.836521 4.699999999999999
5 6 0.836521 4.699999999999999
5 7 0.7409186 4.699999999999999
5 8 0.836521 4.699999999999999
5 9 0.6453162 4.699999999999999
5 10 0.7409186 4.699999999999999
5 11 0.5497137999999999 4.699999999999999
5 12 0.6453162 4.699999999999999
5 13 0.7409186 4.699999999999999
5 14 0.7409186 4.699999999999999
5 15 0.7409186 4.699999999999999
5 16 0.7409186 4.699999999999999
5 17 0.6453162 4.699999999999999
6 6 0.836521 4.699999999999999
6 7 0.836521 4.699999999999999
6 8 0.836521 4.699999999999999
6 9 0.6453162 4.699999999999999
6 10 0.836521 4.699999999999999
6 11 0.6453162 4.699999999999999
6 12 0.6453162 4.699999999999999
6 13 0.836521 4.699999999999999
6 14 0.836521 4.699999999999999
6 15 0.836521 4.699999999999999
6 16 0.836521 4.699999999999999
6 17 0.6453162 4.699999999999999
7 7 0.836521 4.699999999999999
7 8 0.6453162 4.699999999999999
7 9 0.836521 4.699999999999999
7 10 0.836521 4.699999999999999
7 11 0.836521 4.699999999999999
7 12 0.836521 4.699999999999999
7 13 0.836521 4.699999999999999
7 14 0.836521 4.699999999999999
7 15 0.956024 4.699999999999999
7 16 0.956024 4.699999999999999
7 17 0.836521 4.699999999999999
8 8 0.836521 4.699999999999999
8 9 0.6453162 4.699999999999999
8 10 0.7409186 4.699999999999999
8 11 0.478012 4.699999999999999
8 12 0.6453162 4.699999999999999
8 13 0.7409186 4.699999999999999
8 14 0.7409186 4.699999999999999
8 15 0.6453162 4.699999999999999
8 16 0.6453162 4.699999999999999
8 17 0.6453162 4.699999999999999
9 9 0.956024 4.699999999999999
9 10 0.836521 4.699999999999999
9 11 0.956024 4.699999999999999
9 12 1.075527 4.699999999999999
9 13 0.836521 4.699999999999999
9 14 0.7409186 4.699999999999999
9 15 1.075527 4.699999999999999
9 16 1.075527 4.699999999999999
9 17 1.075527 4.699999999999999
10 10 0.62739075 4.3
10 11 0.7409186 4.699999999999999
10 12 0.836521 4.699999999999999
10 13 0.836521 4.699999999999999
10 14 0.62739075 4.3
10 15 0.62739075 4.3
10 16 0.836521 4.699999999999999
10 17 0.62739075 4.3
11 11 1.19503 4.699999999999999
11 12 0.956024 4.699999999999999
11 13 0.7409186 4.699999999999999
11 14 0.6453162 4.699999999999999
11 15 1.075527 4.699999999999999
11 16 1.075527 4.699999999999999
11 17 0.956024 4.699999999999999
12 12 1.075527 4.699999999999999
12 13 0.836521 4.699999999999999
12 14 0.7409186 4.699999999999999
12 15 1.075527 4.699999999999999
12 16 1.075527 4.699999999999999
12 17 1.075527 4.699999999999999
13 13 0.836521 4.699999999999999
13 14 0.836521 4.699999999999999
13 15 0.836521 4.699999999999999
13 16 0.836521 4.699999999999999
13 17 0.836521 4.699999999999999
14 14 0.62739075 4.3
14 15 0.62739075 4.3
14 16 0.836521 4.699999999999999
14 17 0.5556889500000001 4.3
15 15 0.80664525 4.3
15 16 1.075527 4.699999999999999
15 17 0.80664525 4.3
16 16 1.075527 4.699999999999999
16 17 1.075527 4.699999999999999
17 17 0.7170179999999999 4.3

Bond Coeffs

1 1.4937875 3.5
2 8.962725 3.2
3 5.97515 4.0
4 5.97515 3.3000000000000003
5 5.97515 2.8000000000000003
6 8.962725 3.1
7 8.962725 3.0
8 5.97515 3.2
9 8.962725 3.3000000000000003
10 5.97515 3.4000000000000004
11 5.97515 3.0
12 2.987575 4.0
13 11.9503 3.3000000000000003
14 11.9503 3.1
15 11.9503 2.6500000000000004
16 11.9503 2.7
17 11.9503 2.6

Angle Coeffs

1 2.39006 127
2 83.6521 96
3 2.39006 100
4 2.39006 130
5 11.9503 98
6 2.987575 100
7 2.987575 180
8 5.97515 150
9 5.97515 210
10 5.97515 90

Dihedral Coeffs

1 95.6024 1 -120 0

Improper Coeffs

1 5.97515 0
2 23.9006 0

Atoms

1 1 1 1.0000 1.2549999 -0.027 -48.818
2 1 2 0.0000 0.125202 0.14679 -51.1297
3 1 3 -1.0000 -0.78347397 -1.02271 -52.9263
4 1 4 0.0000 1.78297 2.14933 -54.349598
5 1 5 0.0000 2.6957397 0.17138499 -55.700203
6 1 4 0.0000 1.53124 5.1893 -54.6549
7 1 3 -1.0000 -1.93865 6.16247 -55.917503
8 1 4 0.0000 4.34558 5.8639097 -55.6958
9 1 6 0.0000 7.23427 4.2131 -55.5126
10 1 1 1.0000 7.09446 1.15182 -55.844402
11 1 4 0.0000 3.7382798 4.5931 -59.1264
12 1 7 0.0000 1.63241 6.7564898 -59.956398
13 1 6 0.0000 -1.5831 6.49843 -61.3077
14 1 1 1.0000 -4.26676 6.27994 -60.1046
15 1 7 0.0000 3.44422 9.49782 -59.412098
16 1 6 0.0000 2.22283 11.1639 -56.528202
17 1 1 1.0000 0.49288198 9.90367 -54.738697
18 1 7 0.0000 5.94615 8.9651 -61.479103
19 1 8 0.0000 8.51369 7.1796503 -60.504498
20 1 9 0.0000 4.38494 9.48328 -64.2961
21 1 10 0.0000 5.0150003 9.12081 -67.4553
22 1 10 0.0000 4.33779 9.7146 -70.041595
23 1 10 0.0000 6.8541403 8.68686 -69.2383
24 1 9 0.0000 3.48597 12.662899 -63.7846
25 1 5 0.0000 1.7182801 14.2727995 -64.1087
26 1 9 0.0000 6.36787 13.8969 -63.1661
27 1 11 0.0000 5.85227 17.3908 -64.7363
28 1 9 0.0000 7.75353 13.052799 -65.9729
29 1 6 0.0000 9.42648 10.156899 -65.4491
30 1 1 1.0000 11.9144 9.40176 -64.5341
31 1 12 0.0000 6.83951 13.9861 -69.0691
32 1 13 0.0000 8.9760895 14.3883 -71.1046
33 1 7 0.0000 3.6417298 14.3232 -68.597595
34 1 12 0.0000 0.988264 12.5985 -68.3362
35 1 11 0.0000 -1.32498 15.855101 -68.773895
36 1 12 0.0000 -0.0743233 12.230901 -71.6372
37 1 13 0.0000 -0.78274196 15.6702 -71.3243
38 1 2 0.0000 -0.38652802 9.16403 -71.782295
39 1 14 0.0000 1.97946 7.5907497 -72.6867
40 1 15 0.0000 3.6599998 5.82295 -72.5841
41 1 15 0.0000 4.17071 7.7060504 -74.0758
42 1 2 0.0000 -3.3144302 7.92711 -71.5998
43 1 16 0.0000 -4.7331 8.28993 -73.479904
44 1 2 0.0000 -4.81844 7.00181 -68.382904
45 1 5 0.0000 -3.18079 4.8827 -67.7722
46 1 2 0.0000 -7.00861 6.73963 -64.927
47 1 3 -1.0000 -5.85048 9.89294 -62.729996
48 1 12 0.0000 -10.701099 4.26252 -64.1956
49 1 6 0.0000 -11.9099 2.4331 -61.52
50 1 1 1.0000 -11.644401 1.8278099 -58.8755
51 1 12 0.0000 -13.1732 5.2534904 -66.6026
52 1 2 0.0000 -9.67465 7.59103 -66.9916
53 1 2 0.0000 -10.8699 10.5151 -66.3726
54 1 6 0.0000 -10.7442 9.2711 -62.793003
55 1 1 1.0000 -9.44419 7.49165 -60.8193
56 1 2 0.0000 -9.34954 12.747101 -69.79
57 1 14 0.0000 -10.332399 10.6706 -71.9904
58 1 15 0.0000 -9.32133 8.15384 -72.0009
59 1 15 0.0000 -11.86 8.45557 -71.8086
60 1 2 0.0000 -5.54277 13.1623 -71.8195
61 1 6 0.0000 -4.18243 12.1444 -69.0418
62 1 1 1.0000 -4.7013397 11.5409 -66.7314
63 1 2 0.0000 -3.54994 13.056299 -74.9726
64 1 16 0.0000 -4.32771 14.848599 -76.623604
65 1 2 0.0000 -0.720666 10.966701 -76.6186
66 1 11 0.0000 -0.0447388 7.13591 -76.995804
67 1 6 0.0000 1.40893 6.23829 -79.1879
68 1 2 0.0000 -1.03132 4.51954 -74.7968
69 1 2 0.0000 -4.16318 4.42313 -76.5842
70 1 2 0.0000 -2.40665 2.53042 -71.8964
71 1 8 0.0000 0.209811 2.46514 -70.1875
72 1 12 0.0000 -5.89346 2.7918198 -74.17
73 1 14 0.0000 -7.33469 3.6796598 -71.5626
74 1 15 0.0000 -9.52921 4.0107 -70.6475
75 1 15 0.0000 -7.57906 3.16622 -69.1264
76 1 12 0.0000 -7.5255103 -1.17486 -73.3858
77 1 2 0.0000 -5.15199 -1.98247 -71.3276
78 1 8 0.0000 -4.14885 -0.430319 -68.7036
79 1 12 0.0000 -5.74868 -5.07794 -70.0878
80 1 10 0.0000 -5.18978 -5.87694 -67.2313
81 1 10 0.0000 -4.21763 -5.1227303 -65.0413
82 1 10 0.0000 -6.29138 -6.7792997 -65.0032
83 1 12 0.0000 -5.25428 -7.86278 -72.8892
84 1 2 0.0000 -4.62772 -6.30355 -75.9804
85 1 7 0.0000 -3.65307 -3.83291 -75.8115
86 1 1 1.0000 -2.70344 -0.669441 -75.5047
87 1 2 0.0000 -3.62817 -7.48557 -79.1325
88 1 6 0.0000 -0.732404 -9.01872 -80.293396
89 1 1 1.0000 -0.598211 -11.6879 -80.953995
90 1 12 0.0000 -1.92779 -4.11919 -79.8654
91 1 16 0.0000 0.29977 -3.81279 -78.8181
92 1 12 0.0000 -5.161 -3.34097 -81.0765
93 1 2 0.0000 -5.9406195 -1.0626401 -79.0418
94 1 11 0.0000 -8.87062 -3.59527 -77.4281
95 1 11 0.0000 -8.37112 1.57188 -78.9879
96 1 7 0.0000 -10.342899 4.21186 -76.3106
97 1 6 0.0000 -12.0252 2.49606 -74.8026
98 1 12 0.0000 -8.3799095 6.79438 -77.4808
99 1 2 0.0000 -7.78758 5.5371 -80.353004
100 1 10 0.0000 -7.3608203 7.64914 -82.89291
101 1 10 0.0000 -5.56222 7.89007 -84.84061
102 1 10 0.0000 -6.98367 9.85564 -84.4034
103 1 2 0.0000 -4.89427 3.56328 -81.74
104 1 16 0.0000 -5.5124903 1.79536 -83.773
105 1 2 0.0000 -2.2246602 5.30755 -82.3433
106 1 14 0.0000 -2.9166298 8.35666 -81.1669
107 1 14 0.0000 -4.54608 9.43546 -79.3982
108 1 15 0.0000 -3.6637802 11.179 -81.460106
109 1 2 0.0000 -1.1400701 4.98559 -85.7346
110 1 16 0.0000 -2.01738 6.1215696 -87.8767
111 1 4 0.0000 1.5600901 3.1735702 -85.7663
112 1 3 -1.0000 2.46835 1.3296901 -88.199905
113 1 7 0.0000 2.3352602 2.61328 -82.9917
114 1 12 0.0000 -0.32895598 0.743263 -82.052605
115 1 2 0.0000 -0.0964525 1.72561 -79.2059
116 1 12 0.0000 -0.251369 -1.47735 -84.075096
117 1 6 0.0000 -2.12734 -0.678813 -86.67441
118 1 1 1.0000 -1.95103 0.585088 -89.0895
119 1 9 0.0000 2.41858 -3.0963702 -83.3116
120 1 2 0.0000 3.78012 -3.8106399 -86.5792
121 1 2 0.0000 4.78899 -5.21143 -81.59621
122 1 6 0.0000 8.1907 -4.6620398 -81.0349
123 1 1 1.0000 10.493601 -5.04421 -78.975
124 1 2 0.0000 4.08296 -7.63355 -80.180595
125 1 2 0.0000 2.49945 -7.92997 -76.649
126 1 8 0.0000 2.57249 -11.210099 -76.5731
127 1 2 0.0000 -0.12968099 -9.2392 -73.0951
128 1 16 0.0000 -1.25358 -10.2625 -74.973404
129 1 2 0.0000 -1.13414 -8.29056 -70.1222
130 1 14 0.0000 -0.89473796 -5.02245 -70.7489
131 1 17 0.0000 0.0138174 -2.68033 -71.8284
132 1 10 0.0000 0.427022 -5.1150503 -73.0759
133 1 10 0.0000 1.02273 -2.65911 -73.9623
134 1 2 0.0000 0.362665 -8.54644 -66.8627
135 1 6 0.0000 2.99989 -10.644199 -67.6276
136 1 1 1.0000 4.07732 -11.4394 -65.2265
137 1 4 0.0000 2.6824098 -6.33309 -65.9377
138 1 3 -1.0000 5.1807 -7.60834 -62.942
139 1 4 0.0000 5.09472 -7.6877804 -67.770096
140 1 3 -1.0000 6.51001 -8.0358305 -63.524498
141 1 4 0.0000 4.54224 -6.27919 -70.7187
142 1 16 0.0000 4.71772 -7.9955297 -72.3533
143 1 12 0.0000 4.87107 -3.17189 -69.3782
144 1 8 0.0000 3.90586 -0.411277 -70.1267
145 1 9 0.0000 7.85157 -3.1742098 -68.619095
146 1 13 0.0000 10.4048 -6.0456 -66.485504
147 1 9 0.0000 8.96365 -3.34724 -71.6637
148 1 3 -1.0000 12.031401 -3.91742 -74.5208
149 1 9 0.0000 7.81591 -0.466327 -72.8015
150 1 14 0.0000 5.20675 1.0276101 -74.5393
151 1 14 0.0000 4.3059998 3.01837 -76.1522
152 1 15 0.0000 2.7554 1.38835 -75.0399
153 1 12 0.0000 9.358999 1.64352 -71.012505
154 1 8 0.0000 6.7795095 3.45477 -69.9195
155 1 12 0.0000 12.5199995 0.610429 -72.066795
156 1 3 -1.0000 16.0571 0.0641994 -70.8817
157 1 2 0.0000 12.9006 3.09926 -74.1105
158 1 2 0.0000 15.883301 3.74382 -74.5043
159 1 7 0.0000 10.201401 3.5569098 -75.5513
160 1 6 0.0000 8.55596 5.62227 -74.025696
161 1 12 0.0000 11.366301 3.4008 -78.6791
162 1 6 0.0000 12.905399 6.2874503 -79.318
163 1 1 1.0000 12.368 8.92988 -77.9112
164 1 12 0.0000 11.5915 0.0065821297 -78.6154
165 1 6 0.0000 14.7226 -0.36304998 -77.654
166 1 1 1.0000 16.230299 -1.6076399 -75.2879
167 1 12 0.0000 8.5883 -0.600514 -77.8324
168 1 14 0.0000 6.68204 -2.90082 -76.539505
169 1 14 0.0000 4.81357 -3.8043902 -75.19
170 1 15 0.0000 6.86013 -5.2658896 -75.4114
171 1 2 0.0000 6.5366898 0.283655 -79.8405
172 1 8 0.0000 4.00965 -1.25376 -79.237
173 1 7 0.0000 6.7592196 -0.08042999 -83.0497
174 1 6 0.0000 8.4143 -0.855024 -85.2261
175 1 12 0.0000 8.94673 3.6003199 -82.9795
176 1 2 0.0000 6.44099 5.01878 -80.6035
177 1 16 0.0000 7.2997 6.50648 -78.9181
178 1 2 0.0000 4.83423 6.7309704 -83.2481
179 1 6 0.0000 6.70402 5.23203 -85.686195
180 1 1 1.0000 6.41319 3.36844 -87.3922
181 1 2 0.0000 2.1751 8.56915 -83.3747
182 1 13 0.0000 1.76322 8.54726 -87.2118
183 1 2 0.0000 2.9521098 11.620899 -80.5013
184 1 8 0.0000 1.13826 14.2664 -81.0315
185 1 2 0.0000 4.42273 10.8436 -77.8722
186 1 10 0.0000 3.2171898 13.3982 -76.0092
187 1 10 0.0000 3.62259 15.6469 -74.7999
188 1 10 0.0000 1.3847799 15.388401 -76.2505
189 1 11 0.0000 7.6633196 10.542299 -76.6127
190 1 2 0.0000 8.951691 10.0452 -73.7633
191 1 2 0.0000 11.0189 8.22101 -71.0456
192 1 8 0.0000 12.9379 10.2876 -70.3339
193 1 2 0.0000 11.7175 5.06918 -68.4244
194 1 6 0.0000 14.2313 4.92806 -69.890396
195 1 1 1.0000 16.2831 4.0166802 -68.4167
196 1 2 0.0000 15.3749 1.48631 -66.2337
197 1 6 0.0000 17.605799 2.4693 -63.8719
198 1 1 1.0000 17.3878 3.7933202 -61.1697
199 1 4 0.0000 14.4265995 -0.929679 -63.745197
200 1 6 0.0000 11.858601 -3.4140701 -62.4889
201 1 1 1.0000 9.10274 -4.72829 -61.5488
202 1 4 0.0000 12.8537 1.04615 -61.553402
203 1 16 0.0000 11.9363 0.22301899 -59.254498
204 1 4 0.0000 11.9774 3.2846 -63.8209
205 1 3 -1.0000 14.692699 5.97911 -64.400604
206 1 4 0.0000 10.2885 1.0515599 -65.707
207 1 7 0.0000 11.928901 -1.18331 -67.8183
208 1 1 1.0000 13.5295 -3.5023 -69.887
209 1 7 0.0000 8.6697 -0.133694 -63.433098
210 1 3 -1.0000 6.6681805 -1.342 -59.5949
211 1 7 0.0000 7.0616603 2.48109 -62.3875
212 1 3 -1.0000 6.41469 -0.49555397 -59.889797
213 1 7 0.0000 5.6319304 2.9046602 -65.258095
214 1 8 0.0000 7.0921397 5.6793804 -65.4765
215 1 7 0.0000 4.16944 0.0043149004 -64.8496
216 1 8 0.0000 5.3128395 -2.66698 -64.8416
217 1 13 0.0000 2.58212 0.868219 -62.0817
218 1 7 0.0000 0.72686905 2.9528701 -63.666
219 1 14 0.0000 1.27968 5.6226497 -65.2691
220 1 14 0.0000 2.2473 6.08957 -67.6994
221 1 15 0.0000 0.72972095 7.70061 -66.947495
222 1 7 0.0000 -0.568275 0.748769 -65.647705
223 1 8 0.0000 0.381528 -2.14185 -66.9886
224 1 7 0.0000 -1.7300401 -1.09879 -63.325302
225 1 6 0.0000 0.447848 -3.3801699 -61.9663
226 1 1 1.0000 3.3003602 -3.89752 -61.1635
227 1 9 0.0000 -3.23905 1.48012 -61.7017
228 1 6 0.0000 -2.83005 1.30375 -58.624302
229 1 1 1.0000 -4.0653 2.17037 -56.4769
230 1 7 0.0000 -5.36637 2.1787 -64.1562
231 1 9 0.0000 -7.1020403 -0.833863 -64.2611
232 1 16 0.0000 -8.29085 -1.07132 -66.835
233 1 9 0.0000 -8.00645 -0.448502 -61.3155
234 1 2 0.0000 -6.41827 -2.22182 -59.574398
235 1 3 -1.0000 -7.57066 3.0524502 -60.479897
236 1 3 -1.0000 -7.9675903 4.8013 -57.4519

Bonds

1 1 1 2
2 1 31 33
3 1 33 34
4 1 34 36
5 1 36 38
6 1 38 42
7 1 42 44
8 1 44 46
9 1 46 48
10 1 48 51
11 1 51 52
12 1 52 53
13 1 53 56
14 1 56 60
15 1 60 63
16 1 63 65
17 1 65 66
18 1 66 68
19 1 68 70
20 1 70 72
21 1 72 76
22 1 76 77
23 1 77 79
24 1 79 83
25 1 83 84
26 1 84 87
27 1 87 90
28 1 90 92
29 1 92 93
30 1 93 95
31 1 95 96
32 1 96 98
33 1 98 99
34 1 99 103
35 1 103 105
36 1 105 109
37 1 121 124
38 1 124 125
39 1 125 127
40 1 127 129
41 1 129 134
42 1 153 155
43 1 155 157
44 1 171 173
45 1 173 175
46 1 175 176
47 1 176 178
48 1 178 181
49 1 181 183
50 1 183 185
51 1 185 189
52 1 189 190
53 1 190 191
54 1 191 193
55 1 193 196
56 2 2 3
57 3 6 7
58 4 8 9
59 5 9 10
60 4 12 13
61 5 13 14
62 4 15 16
63 5 16 17
64 6 20 21
65 3 26 27
66 4 28 29
67 5 29 30
68 6 31 32
69 3 34 35
70 6 36 37
71 2 38 39
72 3 46 47
73 4 48 49
74 5 49 50
75 4 53 54
76 5 54 55
77 2 56 57
78 4 60 61
79 5 61 62
80 7 66 67
81 8 68 69
82 9 70 71
83 2 72 73
84 9 77 78
85 6 79 80
86 4 84 85
87 10 85 86
88 4 87 88
89 5 88 89
90 3 93 94
91 7 96 97
92 6 99 100
93 8 105 106
94 2 111 112
95 8 114 115
96 4 116 117
97 5 117 118
98 8 119 120
99 4 121 122
100 5 122 123
101 11 129 130
102 4 134 135
103 5 135 136
104 3 137 138
105 3 139 140
106 9 143 144
107 12 145 146
108 3 147 148
109 8 149 150
110 9 153 154
111 3 155 156
112 8 157 158
113 7 159 160
114 4 161 162
115 5 162 163
116 4 164 165
117 5 165 166
118 8 167 168
119 7 173 174
120 4 178 179
121 5 179 180
122 12 181 182
123 6 185 186
124 4 193 194
125 5 194 195
126 4 196 197
127 5 197 198
128 4 199 200
129 5 200 201
130 3 204 205
131 4 206 207
132 10 207 208
133 3 209 210
134 2 211 212
135 9 213 214
136 8 218 219
137 9 222 223
138 4 224 225
139 5 225 226
140 4 227 228
141 5 228 229
142 8 233 234
143 3 235 236
144 13 2 4
145 14 4 6
146 14 6 8
147 14 8 11
148 14 11 12
149 14 12 15
150 14 15 18
151 14 18 20
152 14 20 24
153 14 24 26
154 14 26 28
155 13 28 31
156 13 109 111
157 14 111 113
158 14 113 114
159 14 114 116
160 14 116 119
161 13 119 121
162 13 134 137
163 14 137 139
164 14 139 141
165 14 141 143
166 14 143 145
167 14 145 147
168 14 147 149
169 13 149 153
170 13 157 159
171 14 159 161
172 14 161 164
173 14 164 167
174 13 167 171
175 13 196 199
176 14 199 202
177 14 202 204
178 14 204 206
179 14 206 209
180 14 209 211
181 14 211 213
182 14 213 215
183 14 215 217
184 14 217 218
185 14 218 222
186 14 222 224
187 14 224 227
188 14 227 230
189 14 230 231
190 14 231 233
191 13 233 235
192 15 4 5
193 14 18 19
194 16 21 22
195 16 21 23
196 16 22 23
197 15 24 25
198 16 39 40
199 16 39 41
200 16 40 41
201 17 42 43
202 15 44 45
203 16 57 58
204 16 57 59
205 16 58 59
206 17 63 64
207 16 73 74
208 16 73 75
209 16 74 75
210 16 80 81
211 16 80 82
212 16 81 82
213 17 90 91
214 16 100 101
215 16 100 102
216 16 101 102
217 17 103 104
218 16 106 107
219 16 106 108
220 16 107 108
221 17 109 110
222 14 125 126
223 17 127 128
224 16 130 131
225 16 130 132
226 16 131 132
227 16 131 133
228 16 132 133
229 17 141 142
230 16 150 151
231 16 150 152
232 16 151 152
233 16 168 169
234 16 168 170
235 16 169 170
236 14 171 172
237 17 176 177
238 14 183 184
239 16 186 187
240 16 186 188
241 16 187 188
242 14 191 192
243 17 202 203
244 14 215 216
245 16 219 220
246 16 219 221
247 16 220 221
248 17 231 232

Angles

1 1 1 2 4
2 1 2 4 6
3 2 4 6 8
4 2 6 8 11
5 2 8 11 12
6 2 11 12 15
7 2 12 15 18
8 2 15 18 20
9 2 18 20 24
10 2 20 24 26
11 2 24 26 28
12 3 26 28 31
13 3 28 31 33
14 3 31 33 34
15 3 33 34 36
16 3 34 36 38
17 3 36 38 42
18 1 38 42 44
19 1 42 44 46
20 3 44 46 48
21 3 46 48 51
22 3 48 51 52
23 3 51 52 53
24 1 52 53 56
25 1 53 56 60
26 1 56 60 63
27 1 60 63 65
28 4 63 65 66
29 1 65 66 68
30 1 66 68 70
31 3 68 70 72
32 3 70 72 76
33 3 72 76 77
34 3 76 77 79
35 3 77 79 83
36 3 79 83 84
37 3 83 84 87
38 3 84 87 90
39 3 87 90 92
40 3 90 92 93
41 3 92 93 95
42 1 93 95 96
43 3 95 96 98
44 3 96 98 99
45 3 98 99 103
46 1 99 103 105
47 1 103 105 109
48 1 105 109 111
49 1 109 111 113
50 2 111 113 114
51 2 113 114 116
52 2 114 116 119
53 1 116 119 121
54 1 119 121 124
55 1 121 124 125
56 1 124 125 127
57 1 125 127 129
58 1 127 129 134
59 1 129 134 137
60 4 134 137 139
61 2 137 139 141
62 2 139 141 143
63 2 141 143 145
64 2 143 145 147
65 2 145 147 149
66 3 147 149 153
67 3 149 153 155
68 3 153 155 157
69 3 155 157 159
70 5 157 159 161
71 5 159 161 164
72 2 161 164 167
73 4 164 167 171
74 4 167 171 173
75 3 171 173 175
76 3 173 175 176
77 3 175 176 178
78 1 176 178 181
79 1 178 181 183
80 1 181 183 185
81 1 183 185 189
82 1 185 189 190
83 1 189 190 191
84 1 190 191 193
85 1 191 193 196
86 1 193 196 199
87 4 196 199 202
88 2 199 202 204
89 2 202 204 206
90 2 204 206 209
91 2 206 209 211
92 2 209 211 213
93 2 211 213 215
94 2 213 215 217
95 2 215 217 218
96 2 217 218 222
97 2 218 222 224
98 2 222 224 227
99 2 224 227 230
100 2 227 230 231
101 2 230 231 233
102 1 231 233 235
103 6 1 2 3
104 6 2 4 5
105 6 4 6 7
106 6 6 8 9
107 6 11 12 13
108 6 12 15 16
109 6 15 18 19
110 6 18 20 21
111 6 20 24 25
112 6 24 26 27
113 6 26 28 29
114 6 28 31 32
115 6 33 34 35
116 6 34 36 37
117 6 36 38 39
118 6 38 42 43
119 6 42 44 45
120 6 44 46 47
121 6 46 48 49
122 6 52 53 54
123 6 53 56 57
124 6 56 60 61
125 6 60 63 64
126 6 65 66 67
127 6 66 68 69
128 6 68 70 71
129 6 70 72 73
130 6 76 77 78
131 6 77 79 80
132 6 83 84 85
133 6 84 87 88
134 6 87 90 91
135 6 92 93 94
136 6 95 96 97
137 6 98 99 100
138 6 99 103 104
139 6 103 105 106
140 6 105 109 110
141 6 109 111 112
142 6 113 114 115
143 6 114 116 117
144 6 116 119 120
145 6 119 121 122
146 6 124 125 126
147 6 125 127 128
148 6 127 129 130
149 6 129 134 135
150 6 134 137 138
151 6 137 139 140
152 6 139 141 142
153 6 141 143 144
154 6 143 145 146
155 6 145 147 148
156 6 147 149 150
157 6 149 153 154
158 6 153 155 156
159 6 155 157 158
160 6 157 159 160
161 6 159 161 162
162 6 161 164 165
163 6 164 167 168
164 6 167 171 172
165 6 171 173 174
166 6 175 176 177
167 6 176 178 179
168 6 178 181 182
169 6 181 183 184
170 6 183 185 186
171 6 190 191 192
172 6 191 193 194
173 6 193 196 197
174 6 196 199 200
175 6 199 202 203
176 6 202 204 205
177 6 204 206 207
178 6 206 209 210
179 6 209 211 212
180 6 211 213 214
181 6 213 215 216
182 6 217 218 219
183 6 218 222 223
184 6 222 224 225
185 6 224 227 228
186 6 230 231 232
187 6 231 233 234
188 6 233 235 236
189 7 8 9 10
190 7 12 13 14
191 7 15 16 17
192 8 20 21 22
193 8 20 21 23
194 7 28 29 30
195 8 38 39 40
196 8 38 39 41
197 7 48 49 50
198 7 53 54 55
199 8 56 57 58
200 8 56 57 59
201 7 60 61 62
202 8 72 73 74
203 8 72 73 75
204 8 79 80 81
205 8 79 80 82
206 7 84 85 86
207 7 87 88 89
208 8 99 100 101
209 8 99 100 102
210 8 105 106 107
211 8 105 106 108
212 7 116 117 118
213 7 121 122 123
214 9 129 130 131
215 10 129 130 132
216 7 134 135 136
217 8 149 150 151
218 8 149 150 152
219 7 161 162 163
220 7 164 165 166
221 8 167 168 169
222 8 167 168 170
223 7 178 179 180
224 8 185 186 187
225 8 185 186 188
226 7 193 194 195
227 7 196 197 198
228 7 199 200 201
229 7 206 207 208
230 8 218 219 220
231 8 218 219 221
232 7 224 225 226
233 7 227 228 229

Dihedrals

1 1 4 6 8 11
2 1 6 8 11 12
3 1 8 11 12 15
4 1 11 12 15 18
5 1 12 15 18 20
6 1 15 18 20 24
7 1 18 20 24 26
8 1 20 24 26 28
9 1 111 113 114 116
10 1 113 114 116 119
11 1 137 139 141 143
12 1 139 141 143 145
13 1 141 143 145 147
14 1 143 145 147 149
15 1 159 161 164 167
16 1 199 202 204 206
17 1 202 204 206 209
18 1 204 206 209 211
19 1 206 209 211 213
20 1 209 211 213 215
21 1 211 213 215 217
22 1 213 215 217 218
23 1 215 217 218 222
24 1 217 218 222 224
25 1 218 222 224 227
26 1 222 224 227 230
27 1 224 227 230 231
28 1 227 230 231 233

Impropers

1 1 20 22 23 21
2 1 38 40 41 39
3 1 56 58 59 57
4 1 72 74 75 73
5 1 79 81 82 80
6 1 99 101 102 100
7 1 105 107 108 106
8 1 129 131 132 130
9 2 130 131 133 132
10 1 149 151 152 150
11 1 167 169 170 168
12 1 185 187 188 186
13 1 218 220 221 219

