comment

236 atoms
248 bonds
233 angles
28 dihedrals
13 impropers

17 atom types
17 bond types
10 angle types
1 dihedral types
2 improper types

-40.5 40.5 xlo xhi
-40.5 40.5 ylo yhi
-190.0 190.0 zlo zhi

Masses

1 72.0
2 72.0
3 72.0
4 72.0
5 72.0
6 72.0
7 72.0
8 72.0
9 72.0
10 45.0
11 72.0
12 72.0
13 72.0
14 45.0
15 45.0
16 72.0
17 45.0

PairIJ Coeffs

1 1 1.19503 4.699999999999999
1 2 1.3384336 4.699999999999999
1 3 1.3384336 4.699999999999999
1 4 0.956024 4.699999999999999
1 5 0.478012 4.699999999999999
1 6 0.5497137999999999 4.699999999999999
1 7 0.836521 4.699999999999999
1 8 0.478012 4.699999999999999
1 9 1.19503 4.699999999999999
1 10 0.7409186 4.699999999999999
1 11 1.3384336 4.699999999999999
1 12 1.19503 4.699999999999999
1 13 0.7409186 4.699999999999999
1 14 0.6453162 4.699999999999999
1 15 1.19503 4.699999999999999
1 16 1.19503 4.699999999999999
1 17 0.956024 4.699999999999999
2 2 1.3384336 4.699999999999999
2 3 1.3384336 4.699999999999999
2 4 1.19503 4.699999999999999
2 5 0.5497137999999999 4.699999999999999
2 6 0.6453162 4.699999999999999
2 7 0.836521 4.699999999999999
2 8 0.478012 4.699999999999999
2 9 1.19503 4.699999999999999
2 10 0.7409186 4.699999999999999
2 11 1.3384336 4.699999999999999
2 12 1.19503 4.699999999999999
2 13 0.7409186 4.699999999999999
2 14 0.6453162 4.699999999999999
2 15 1.3384336 4.699999999999999
2 16 1.3384336 4.699999999999999
2 17 1.19503 4.699999999999999
3 3 1.19503 4.699999999999999
3 4 1.19503 4.699999999999999
3 5 0.478012 4.699999999999999
3 6 0.5497137999999999 4.699999999999999
3 7 0.836521 4.699999999999999
3 8 0.478012 4.699999999999999
3 9 0.956024 4.699999999999999
3 10 0.7409186 4.699999999999999
3 11 1.3384336 4.699999999999999
3 12 1.19503 4.699999999999999
3 13 0.7409186 4.699999999999999
3 14 0.6453162 4.699999999999999
3 15 1.19503 4.699999999999999
3 16 1.19503 4.699999999999999
3 17 1.19503 4.699999999999999
4 4 0.956024 4.699999999999999
4 5 0.6453162 4.699999999999999
4 6 0.6453162 4.699999999999999
4 7 0.836521 4.699999999999999
4 8 0.6453162 4.699999999999999
4 9 1.075527 4.699999999999999
4 10 0.836521 4.699999999999999
4 11 0.956024 4.699999999999999
4 12 1.075527 4.699999999999999
4 13 0.836521 4.699999999999999
4 14 0.7409186 4.699999999999999
4 15 1.075527 4.699999999999999
4 16 1.075527 4.699999999999999
4 17 0.956024 4.699999999999999
5 5 0.836521 4.699999999999999
5 6 0.836521 4.699999999999999
5 7 0.7409186 4.699999999999999
5 8 0.836521 4.699999999999999
5 9 0.6453162 4.699999999999999
5 10 0.7409186 4.699999999999999
5 11 0.5497137999999999 4.699999999999999
5 12 0.6453162 4.699999999999999
5 13 0.7409186 4.699999999999999
5 14 0.7409186 4.699999999999999
5 15 0.7409186 4.699999999999999
5 16 0.7409186 4.699999999999999
5 17 0.6453162 4.699999999999999
6 6 0.836521 4.699999999999999
6 7 0.836521 4.699999999999999
6 8 0.836521 4.699999999999999
6 9 0.6453162 4.699999999999999
6 10 0.836521 4.699999999999999
6 11 0.6453162 4.699999999999999
6 12 0.6453162 4.699999999999999
6 13 0.836521 4.699999999999999
6 14 0.836521 4.699999999999999
6 15 0.836521 4.699999999999999
6 16 0.836521 4.699999999999999
6 17 0.6453162 4.699999999999999
7 7 0.836521 4.699999999999999
7 8 0.6453162 4.699999999999999
7 9 0.836521 4.699999999999999
7 10 0.836521 4.699999999999999
7 11 0.836521 4.699999999999999
7 12 0.836521 4.699999999999999
7 13 0.836521 4.699999999999999
7 14 0.836521 4.699999999999999
7 15 0.956024 4.699999999999999
7 16 0.956024 4.699999999999999
7 17 0.836521 4.699999999999999
8 8 0.836521 4.699999999999999
8 9 0.6453162 4.699999999999999
8 10 0.7409186 4.699999999999999
8 11 0.478012 4.699999999999999
8 12 0.6453162 4.699999999999999
8 13 0.7409186 4.699999999999999
8 14 0.7409186 4.699999999999999
8 15 0.6453162 4.699999999999999
8 16 0.6453162 4.699999999999999
8 17 0.6453162 4.699999999999999
9 9 0.956024 4.699999999999999
9 10 0.836521 4.699999999999999
9 11 0.956024 4.699999999999999
9 12 1.075527 4.699999999999999
9 13 0.836521 4.699999999999999
9 14 0.7409186 4.699999999999999
9 15 1.075527 4.699999999999999
9 16 1.075527 4.699999999999999
9 17 1.075527 4.699999999999999
10 10 0.62739075 4.3
10 11 0.7409186 4.699999999999999
10 12 0.836521 4.699999999999999
10 13 0.836521 4.699999999999999
10 14 0.62739075 4.3
10 15 0.62739075 4.3
10 16 0.836521 4.699999999999999
10 17 0.62739075 4.3
11 11 1.19503 4.699999999999999
11 12 0.956024 4.699999999999999
11 13 0.7409186 4.699999999999999
11 14 0.6453162 4.699999999999999
11 15 1.075527 4.699999999999999
11 16 1.075527 4.699999999999999
11 17 0.956024 4.699999999999999
12 12 1.075527 4.699999999999999
12 13 0.836521 4.699999999999999
12 14 0.7409186 4.699999999999999
12 15 1.075527 4.699999999999999
12 16 1.075527 4.699999999999999
12 17 1.075527 4.699999999999999
13 13 0.836521 4.699999999999999
13 14 0.836521 4.699999999999999
13 15 0.836521 4.699999999999999
13 16 0.836521 4.699999999999999
13 17 0.836521 4.699999999999999
14 14 0.62739075 4.3
14 15 0.62739075 4.3
14 16 0.836521 4.699999999999999
14 17 0.5556889500000001 4.3
15 15 0.80664525 4.3
15 16 1.075527 4.699999999999999
15 17 0.80664525 4.3
16 16 1.075527 4.699999999999999
16 17 1.075527 4.699999999999999
17 17 0.7170179999999999 4.3

Bond Coeffs

1 1.4937875 3.5
2 8.962725 3.2
3 5.97515 4.0
4 5.97515 3.3000000000000003
5 5.97515 2.8000000000000003
6 8.962725 3.1
7 8.962725 3.0
8 5.97515 3.2
9 8.962725 3.3000000000000003
10 5.97515 3.4000000000000004
11 5.97515 3.0
12 2.987575 4.0
13 11.9503 3.3000000000000003
14 11.9503 3.1
15 11.9503 2.6500000000000004
16 11.9503 2.7
17 11.9503 2.6

Angle Coeffs

1 2.39006 127
2 83.6521 96
3 2.39006 100
4 2.39006 130
5 11.9503 98
6 2.987575 100
7 2.987575 180
8 5.97515 150
9 5.97515 210
10 5.97515 90

Dihedral Coeffs

1 95.6024 1 -120 0

Improper Coeffs

1 5.97515 0
2 23.9006 0

Atoms

1 1 1 1.0000 1.2549999 -0.027 -48.818
2 1 2 0.0000 0.232222 0.269878 -51.1481
3 1 3 -1.0000 -1.32375 -0.35618302 -53.2414
4 1 4 0.0000 2.0894501 2.0843 -54.4091
5 1 5 0.0000 2.82776 0.12989199 -56.2104
6 1 4 0.0000 1.55975 5.2840605 -54.7765
7 1 3 -1.0000 -1.5598 6.1276197 -56.3896
8 1 4 0.0000 4.39266 6.1190405 -56.341
9 1 6 0.0000 7.1011696 4.46101 -55.964096
10 1 1 1.0000 7.47707 1.6792799 -56.4435
11 1 4 0.0000 3.7568598 4.71622 -59.433
12 1 7 0.0000 1.64253 7.00011 -60.2816
13 1 6 0.0000 -1.92118 6.7066097 -61.1562
14 1 1 1.0000 -4.17034 6.0459 -60.4229
15 1 7 0.0000 3.4857402 9.5308695 -59.7081
16 1 6 0.0000 2.19626 11.3278 -56.9462
17 1 1 1.0000 0.281296 10.296201 -55.1604
18 1 7 0.0000 5.98699 9.00472 -61.6921
19 1 8 0.0000 8.42005 7.45623 -60.6506
20 1 9 0.0000 4.4201603 9.57749 -64.485794
21 1 10 0.0000 5.0138803 9.5568905 -67.81
22 1 10 0.0000 5.3599 10.1724 -70.809006
23 1 10 0.0000 7.0120296 8.928989 -69.116905
24 1 9 0.0000 3.5552702 12.7245 -63.756798
25 1 5 0.0000 1.16384 14.2352 -63.8627
26 1 9 0.0000 6.37937 13.7298 -63.028202
27 1 11 0.0000 5.76966 17.581299 -64.9235
28 1 9 0.0000 7.7972603 13.2762 -65.8914
29 1 6 0.0000 9.79227 10.735101 -65.6071
30 1 1 1.0000 11.5014 8.86512 -65.266
31 1 12 0.0000 6.75816 14.1991 -68.9042
32 1 13 0.0000 9.10377 14.2942 -70.9369
33 1 7 0.0000 3.83497 14.3047 -68.9986
34 1 12 0.0000 1.26118 12.4876 -68.4552
35 1 11 0.0000 -1.5165 16.0147 -68.684
36 1 12 0.0000 -0.231837 12.025 -71.3852
37 1 13 0.0000 -1.03035 15.377701 -71.677795
38 1 2 0.0000 -1.03032 8.91027 -71.548096
39 1 14 0.0000 2.23689 7.88104 -72.4536
40 1 15 0.0000 3.6799898 5.5696397 -72.8169
41 1 15 0.0000 4.20802 7.75317 -74.2396
42 1 2 0.0000 -4.12226 7.7319803 -71.5092
43 1 16 0.0000 -5.28158 8.41792 -73.9913
44 1 2 0.0000 -4.56003 7.33558 -67.1958
45 1 5 0.0000 -3.37477 5.05337 -67.3935
46 1 2 0.0000 -7.30659 6.54465 -65.3846
47 1 3 -1.0000 -5.7838 9.69285 -62.9494
48 1 12 0.0000 -11.293401 3.7343202 -64.3765
49 1 6 0.0000 -12.0268 2.3369 -61.441998
50 1 1 1.0000 -11.396299 1.5962499 -58.7509
51 1 12 0.0000 -12.4834 5.5101104 -67.2815
52 1 2 0.0000 -9.47219 7.4723797 -67.388504
53 1 2 0.0000 -10.6383 10.735101 -66.171295
54 1 6 0.0000 -10.5130005 9.32342 -62.864197
55 1 1 1.0000 -9.80517 7.24029 -61.019
56 1 2 0.0000 -8.73363 12.8199005 -69.8632
57 1 14 0.0000 -9.87807 10.184401 -71.4387
58 1 15 0.0000 -9.60802 7.9166102 -72.3458
59 1 15 0.0000 -12.210199 8.28724 -71.515
60 1 2 0.0000 -5.4945498 12.8167 -71.8943
61 1 6 0.0000 -4.37677 12.251801 -68.7108
62 1 1 1.0000 -4.05971 12.827999 -65.9457
63 1 2 0.0000 -3.68959 12.7647 -75.6741
64 1 16 0.0000 -2.9566 15.118 -76.764694
65 1 2 0.0000 -0.799388 10.3128 -76.1797
66 1 11 0.0000 0.299735 7.1105 -76.8834
67 1 6 0.0000 1.4774901 6.0917096 -79.4363
68 1 2 0.0000 -1.34175 4.76057 -75.0953
69 1 2 0.0000 -4.0319 4.7480497 -76.834305
70 1 2 0.0000 -2.62557 2.30432 -72.5106
71 1 8 0.0000 -0.333938 2.7438302 -70.1759
72 1 12 0.0000 -5.79973 2.37238 -74.6522
73 1 14 0.0000 -7.2695203 2.9707398 -72.1237
74 1 15 0.0000 -9.37035 3.58616 -71.0312
75 1 15 0.0000 -7.7400103 3.10833 -69.0384
76 1 12 0.0000 -7.5 -1.21502 -73.4398
77 1 2 0.0000 -5.7614202 -2.1145601 -70.7941
78 1 8 0.0000 -4.26994 -1.11305 -68.4163
79 1 12 0.0000 -6.1129804 -5.49693 -69.9134
80 1 10 0.0000 -5.12501 -5.7006197 -67.0428
81 1 10 0.0000 -3.0134 -5.6299596 -65.1831
82 1 10 0.0000 -5.3935 -6.9163604 -64.619896
83 1 12 0.0000 -5.63795 -8.2187805 -72.7806
84 1 2 0.0000 -5.58562 -7.2390995 -75.6523
85 1 7 0.0000 -3.85864 -4.28496 -75.3694
86 1 1 1.0000 -3.02356 -1.38312 -75.6279
87 1 2 0.0000 -3.69282 -7.6404 -78.994095
88 1 6 0.0000 -0.60790503 -8.86608 -80.0038
89 1 1 1.0000 -0.16873401 -8.06628 -82.9667
90 1 12 0.0000 -2.29009 -4.3253603 -79.998795
91 1 16 0.0000 0.18102899 -3.80266 -78.7555
92 1 12 0.0000 -5.5348597 -3.32127 -81.3013
93 1 2 0.0000 -6.42842 -1.16403 -79.1565
94 1 11 0.0000 -8.910851 -3.78319 -77.793495
95 1 11 0.0000 -8.28229 0.797256 -79.4306
96 1 7 0.0000 -10.325299 3.7239199 -77.1742
97 1 6 0.0000 -12.0959 2.31239 -74.9245
98 1 12 0.0000 -8.53561 6.8244 -77.2152
99 1 2 0.0000 -7.79636 5.62835 -80.816605
100 1 10 0.0000 -7.21177 7.68549 -82.9559
101 1 10 0.0000 -6.2026696 8.39451 -85.6071
102 1 10 0.0000 -6.94339 10.45 -84.09059
103 1 2 0.0000 -4.60068 3.11151 -81.6396
104 1 16 0.0000 -5.52197 1.9242699 -83.79211
105 1 2 0.0000 -2.57128 5.59062 -82.160706
106 1 14 0.0000 -2.88381 8.2127 -81.1843
107 1 14 0.0000 -4.7957797 9.1477 -79.6124
108 1 15 0.0000 -3.5044599 10.994101 -81.2265
109 1 2 0.0000 -1.49736 4.52517 -85.8997
110 1 16 0.0000 -1.97917 5.8376904 -88.1451
111 1 4 0.0000 1.27477 2.92928 -85.8721
112 1 3 -1.0000 2.38967 1.3495 -87.994095
113 1 7 0.0000 2.18969 2.35888 -82.818695
114 1 12 0.0000 -0.350692 0.699602 -81.9198
115 1 2 0.0000 -0.538543 1.21273 -79.126
116 1 12 0.0000 -0.17050801 -1.9080501 -83.98521
117 1 6 0.0000 -2.4274 -1.14887 -86.1596
118 1 1 1.0000 -1.95962 0.55918 -88.9127
119 1 9 0.0000 2.75844 -3.15256 -83.4056
120 1 2 0.0000 3.8369899 -3.40839 -86.8577
121 1 2 0.0000 4.4502697 -4.92106 -81.2598
122 1 6 0.0000 8.06823 -4.62294 -81.0048
123 1 1 1.0000 10.4117 -5.21415 -79.3442
124 1 2 0.0000 3.99155 -6.97015 -79.7605
125 1 2 0.0000 2.91712 -7.9882298 -77.2318
126 1 8 0.0000 2.66919 -10.8141 -76.385
127 1 2 0.0000 -0.508583 -7.71069 -74.4228
128 1 16 0.0000 -1.55478 -9.97697 -75.0615
129 1 2 0.0000 -1.0720899 -8.31603 -70.3864
130 1 14 0.0000 -0.92248 -5.0371404 -70.5197
131 1 17 0.0000 -0.138742 -2.69227 -71.5363
132 1 10 0.0000 0.520957 -4.84425 -72.897
133 1 10 0.0000 1.12755 -2.46666 -73.6864
134 1 2 0.0000 0.0746077 -8.97987 -67.0294
135 1 6 0.0000 2.49951 -11.086901 -67.553604
136 1 1 1.0000 3.49607 -11.496201 -64.8247
137 1 4 0.0000 2.33552 -6.4243603 -66.5595
138 1 3 -1.0000 5.35155 -7.62229 -63.362396
139 1 4 0.0000 5.0797896 -7.8042297 -67.94
140 1 3 -1.0000 5.7989902 -7.8723803 -63.4911
141 1 4 0.0000 4.6213703 -6.34799 -70.7473
142 1 16 0.0000 4.1708603 -7.98749 -72.666794
143 1 12 0.0000 4.65728 -3.3849902 -69.650505
144 1 8 0.0000 4.04468 -0.0349021 -69.5047
145 1 9 0.0000 7.78271 -3.33562 -68.6786
146 1 13 0.0000 9.88926 -6.3935 -66.8233
147 1 9 0.0000 8.895761 -3.29249 -71.9168
148 1 3 -1.0000 11.852501 -3.8111901 -74.7587
149 1 9 0.0000 7.7877197 -0.49868798 -72.9096
150 1 14 0.0000 5.1544 0.95670795 -74.0102
151 1 14 0.0000 3.9657302 2.6842701 -75.9236
152 1 15 0.0000 2.29529 1.5232099 -73.9068
153 1 12 0.0000 9.22472 1.3273001 -71.1478
154 1 8 0.0000 6.9879103 3.33823 -69.8494
155 1 12 0.0000 12.1366005 1.01039 -72.1337
156 1 3 -1.0000 15.7078 0.10192 -70.9504
157 1 2 0.0000 13.0415 3.59599 -73.6841
158 1 2 0.0000 16.3284 3.42973 -74.149
159 1 7 0.0000 10.2849 3.51917 -75.537704
160 1 6 0.0000 8.42496 5.18968 -74.2062
161 1 12 0.0000 11.3122 3.09747 -78.3582
162 1 6 0.0000 12.9265 6.1708803 -78.3726
163 1 1 1.0000 11.359 7.98952 -78.6235
164 1 12 0.0000 11.464601 0.0384872 -78.3701
165 1 6 0.0000 14.2714 -0.616652 -77.5592
166 1 1 1.0000 15.6922 -1.51796 -75.1076
167 1 12 0.0000 8.44549 -0.820311 -77.4905
168 1 14 0.0000 6.68412 -3.0908098 -76.4818
169 1 14 0.0000 4.81112 -3.9717298 -75.058395
170 1 15 0.0000 6.85576 -5.5338297 -75.7982
171 1 2 0.0000 6.23853 0.22773299 -79.9477
172 1 8 0.0000 3.70505 -0.835571 -79.0694
173 1 7 0.0000 6.33065 0.26890498 -83.4121
174 1 6 0.0000 8.62475 -0.96284395 -84.7139
175 1 12 0.0000 8.9351 3.1277099 -82.9596
176 1 2 0.0000 6.48703 4.5921297 -80.5209
177 1 16 0.0000 6.72458 6.4177103 -78.6831
178 1 2 0.0000 4.82576 6.9285603 -83.4882
179 1 6 0.0000 6.48627 4.95019 -85.6104
180 1 1 1.0000 6.48979 2.95463 -87.4384
181 1 2 0.0000 2.37216 9.35223 -83.676
182 1 13 0.0000 1.99668 8.70727 -86.7976
183 1 2 0.0000 1.46886 11.0679 -80.4913
184 1 8 0.0000 1.4679401 14.3005 -80.8945
185 1 2 0.0000 3.9498901 10.875999 -77.9717
186 1 10 0.0000 3.36692 13.557 -76.9226
187 1 10 0.0000 4.0314903 15.6313 -75.1937
188 1 10 0.0000 1.60184 14.9299 -75.9925
189 1 11 0.0000 7.3563404 10.9241 -76.3144
190 1 2 0.0000 9.4086895 9.73796 -74.1621
191 1 2 0.0000 11.0833 7.66962 -70.9294
192 1 8 0.0000 12.929501 9.99483 -70.0789
193 1 2 0.0000 11.8888 4.90412 -68.2511
194 1 6 0.0000 14.5075 4.90663 -69.3253
195 1 1 1.0000 16.7354 3.75152 -68.5064
196 1 2 0.0000 15.8355 1.07892 -65.9483
197 1 6 0.0000 18.07 2.68292 -63.7658
198 1 1 1.0000 17.476099 4.4232197 -61.3249
199 1 4 0.0000 14.7303 -1.05726 -63.2313
200 1 6 0.0000 11.775301 -3.65289 -62.0185
201 1 1 1.0000 8.79007 -4.68137 -61.7926
202 1 4 0.0000 13.2017 0.995264 -61.3685
203 1 16 0.0000 12.1947 -0.234932 -59.137802
204 1 4 0.0000 12.0909 2.90017 -63.7454
205 1 3 -1.0000 14.9992 6.0177703 -64.6935
206 1 4 0.0000 10.5023 0.712092 -65.6978
207 1 7 0.0000 11.9697 -1.65797 -67.7225
208 1 1 1.0000 13.1891 -3.5486798 -70.1887
209 1 7 0.0000 9.0508995 -0.289513 -63.2648
210 1 3 -1.0000 6.6991 -1.4653599 -59.780304
211 1 7 0.0000 7.33264 2.38861 -62.205902
212 1 3 -1.0000 6.20189 -0.654117 -60.0412
213 1 7 0.0000 5.8883 2.7582698 -65.0943
214 1 8 0.0000 7.2575803 5.6734505 -65.4099
215 1 7 0.0000 4.20514 -0.084372304 -64.9018
216 1 8 0.0000 5.19355 -3.05565 -64.5611
217 1 13 0.0000 2.19162 1.05366 -62.449898
218 1 7 0.0000 0.757705 3.13731 -63.892204
219 1 14 0.0000 1.53212 5.2801504 -65.5094
220 1 14 0.0000 2.17466 5.93267 -67.9177
221 1 15 0.0000 0.42394102 7.75909 -66.8205
222 1 7 0.0000 -0.59783804 0.690011 -65.9727
223 1 8 0.0000 0.433998 -2.15049 -67.0144
224 1 7 0.0000 -1.6736699 -1.01241 -63.330597
225 1 6 0.0000 1.08222 -3.2374 -61.903
226 1 1 1.0000 3.45842 -4.4074 -60.8709
227 1 9 0.0000 -3.2393198 1.2950001 -62.019802
228 1 6 0.0000 -2.87191 1.65692 -58.7873
229 1 1 1.0000 -4.25601 2.24985 -55.8577
230 1 7 0.0000 -5.32165 1.9403399 -64.3226
231 1 9 0.0000 -6.8897905 -0.744468 -64.373
232 1 16 0.0000 -8.46641 -1.15576 -66.5162
233 1 9 0.0000 -7.64121 -0.481296 -61.318
234 1 2 0.0000 -6.86189 -1.45535 -58.274998
235 1 3 -1.0000 -7.4788303 2.81283 -60.4758
236 1 3 -1.0000 -8.26947 4.76527 -57.656002

Bonds

1 1 1 2
2 1 31 33
3 1 33 34
4 1 34 36
5 1 36 38
6 1 38 42
7 1 42 44
8 1 44 46
9 1 46 48
10 1 48 51
11 1 51 52
12 1 52 53
13 1 53 56
14 1 56 60
15 1 60 63
16 1 63 65
17 1 65 66
18 1 66 68
19 1 68 70
20 1 70 72
21 1 72 76
22 1 76 77
23 1 77 79
24 1 79 83
25 1 83 84
26 1 84 87
27 1 87 90
28 1 90 92
29 1 92 93
30 1 93 95
31 1 95 96
32 1 96 98
33 1 98 99
34 1 99 103
35 1 103 105
36 1 105 109
37 1 121 124
38 1 124 125
39 1 125 127
40 1 127 129
41 1 129 134
42 1 153 155
43 1 155 157
44 1 171 173
45 1 173 175
46 1 175 176
47 1 176 178
48 1 178 181
49 1 181 183
50 1 183 185
51 1 185 189
52 1 189 190
53 1 190 191
54 1 191 193
55 1 193 196
56 2 2 3
57 3 6 7
58 4 8 9
59 5 9 10
60 4 12 13
61 5 13 14
62 4 15 16
63 5 16 17
64 6 20 21
65 3 26 27
66 4 28 29
67 5 29 30
68 6 31 32
69 3 34 35
70 6 36 37
71 2 38 39
72 3 46 47
73 4 48 49
74 5 49 50
75 4 53 54
76 5 54 55
77 2 56 57
78 4 60 61
79 5 61 62
80 7 66 67
81 8 68 69
82 9 70 71
83 2 72 73
84 9 77 78
85 6 79 80
86 4 84 85
87 10 85 86
88 4 87 88
89 5 88 89
90 3 93 94
91 7 96 97
92 6 99 100
93 8 105 106
94 2 111 112
95 8 114 115
96 4 116 117
97 5 117 118
98 8 119 120
99 4 121 122
100 5 122 123
101 11 129 130
102 4 134 135
103 5 135 136
104 3 137 138
105 3 139 140
106 9 143 144
107 12 145 146
108 3 147 148
109 8 149 150
110 9 153 154
111 3 155 156
112 8 157 158
113 7 159 160
114 4 161 162
115 5 162 163
116 4 164 165
117 5 165 166
118 8 167 168
119 7 173 174
120 4 178 179
121 5 179 180
122 12 181 182
123 6 185 186
124 4 193 194
125 5 194 195
126 4 196 197
127 5 197 198
128 4 199 200
129 5 200 201
130 3 204 205
131 4 206 207
132 10 207 208
133 3 209 210
134 2 211 212
135 9 213 214
136 8 218 219
137 9 222 223
138 4 224 225
139 5 225 226
140 4 227 228
141 5 228 229
142 8 233 234
143 3 235 236
144 13 2 4
145 14 4 6
146 14 6 8
147 14 8 11
148 14 11 12
149 14 12 15
150 14 15 18
151 14 18 20
152 14 20 24
153 14 24 26
154 14 26 28
155 13 28 31
156 13 109 111
157 14 111 113
158 14 113 114
159 14 114 116
160 14 116 119
161 13 119 121
162 13 134 137
163 14 137 139
164 14 139 141
165 14 141 143
166 14 143 145
167 14 145 147
168 14 147 149
169 13 149 153
170 13 157 159
171 14 159 161
172 14 161 164
173 14 164 167
174 13 167 171
175 13 196 199
176 14 199 202
177 14 202 204
178 14 204 206
179 14 206 209
180 14 209 211
181 14 211 213
182 14 213 215
183 14 215 217
184 14 217 218
185 14 218 222
186 14 222 224
187 14 224 227
188 14 227 230
189 14 230 231
190 14 231 233
191 13 233 235
192 15 4 5
193 14 18 19
194 16 21 22
195 16 21 23
196 16 22 23
197 15 24 25
198 16 39 40
199 16 39 41
200 16 40 41
201 17 42 43
202 15 44 45
203 16 57 58
204 16 57 59
205 16 58 59
206 17 63 64
207 16 73 74
208 16 73 75
209 16 74 75
210 16 80 81
211 16 80 82
212 16 81 82
213 17 90 91
214 16 100 101
215 16 100 102
216 16 101 102
217 17 103 104
218 16 106 107
219 16 106 108
220 16 107 108
221 17 109 110
222 14 125 126
223 17 127 128
224 16 130 131
225 16 130 132
226 16 131 132
227 16 131 133
228 16 132 133
229 17 141 142
230 16 150 151
231 16 150 152
232 16 151 152
233 16 168 169
234 16 168 170
235 16 169 170
236 14 171 172
237 17 176 177
238 14 183 184
239 16 186 187
240 16 186 188
241 16 187 188
242 14 191 192
243 17 202 203
244 14 215 216
245 16 219 220
246 16 219 221
247 16 220 221
248 17 231 232

Angles

1 1 1 2 4
2 1 2 4 6
3 2 4 6 8
4 2 6 8 11
5 2 8 11 12
6 2 11 12 15
7 2 12 15 18
8 2 15 18 20
9 2 18 20 24
10 2 20 24 26
11 2 24 26 28
12 3 26 28 31
13 3 28 31 33
14 3 31 33 34
15 3 33 34 36
16 3 34 36 38
17 3 36 38 42
18 1 38 42 44
19 1 42 44 46
20 3 44 46 48
21 3 46 48 51
22 3 48 51 52
23 3 51 52 53
24 1 52 53 56
25 1 53 56 60
26 1 56 60 63
27 1 60 63 65
28 4 63 65 66
29 1 65 66 68
30 1 66 68 70
31 3 68 70 72
32 3 70 72 76
33 3 72 76 77
34 3 76 77 79
35 3 77 79 83
36 3 79 83 84
37 3 83 84 87
38 3 84 87 90
39 3 87 90 92
40 3 90 92 93
41 3 92 93 95
42 1 93 95 96
43 3 95 96 98
44 3 96 98 99
45 3 98 99 103
46 1 99 103 105
47 1 103 105 109
48 1 105 109 111
49 1 109 111 113
50 2 111 113 114
51 2 113 114 116
52 2 114 116 119
53 1 116 119 121
54 1 119 121 124
55 1 121 124 125
56 1 124 125 127
57 1 125 127 129
58 1 127 129 134
59 1 129 134 137
60 4 134 137 139
61 2 137 139 141
62 2 139 141 143
63 2 141 143 145
64 2 143 145 147
65 2 145 147 149
66 3 147 149 153
67 3 149 153 155
68 3 153 155 157
69 3 155 157 159
70 5 157 159 161
71 5 159 161 164
72 2 161 164 167
73 4 164 167 171
74 4 167 171 173
75 3 171 173 175
76 3 173 175 176
77 3 175 176 178
78 1 176 178 181
79 1 178 181 183
80 1 181 183 185
81 1 183 185 189
82 1 185 189 190
83 1 189 190 191
84 1 190 191 193
85 1 191 193 196
86 1 193 196 199
87 4 196 199 202
88 2 199 202 204
89 2 202 204 206
90 2 204 206 209
91 2 206 209 211
92 2 209 211 213
93 2 211 213 215
94 2 213 215 217
95 2 215 217 218
96 2 217 218 222
97 2 218 222 224
98 2 222 224 227
99 2 224 227 230
100 2 227 230 231
101 2 230 231 233
102 1 231 233 235
103 6 1 2 3
104 6 2 4 5
105 6 4 6 7
106 6 6 8 9
107 6 11 12 13
108 6 12 15 16
109 6 15 18 19
110 6 18 20 21
111 6 20 24 25
112 6 24 26 27
113 6 26 28 29
114 6 28 31 32
115 6 33 34 35
116 6 34 36 37
117 6 36 38 39
118 6 38 42 43
119 6 42 44 45
120 6 44 46 47
121 6 46 48 49
122 6 52 53 54
123 6 53 56 57
124 6 56 60 61
125 6 60 63 64
126 6 65 66 67
127 6 66 68 69
128 6 68 70 71
129 6 70 72 73
130 6 76 77 78
131 6 77 79 80
132 6 83 84 85
133 6 84 87 88
134 6 87 90 91
135 6 92 93 94
136 6 95 96 97
137 6 98 99 100
138 6 99 103 104
139 6 103 105 106
140 6 105 109 110
141 6 109 111 112
142 6 113 114 115
143 6 114 116 117
144 6 116 119 120
145 6 119 121 122
146 6 124 125 126
147 6 125 127 128
148 6 127 129 130
149 6 129 134 135
150 6 134 137 138
151 6 137 139 140
152 6 139 141 142
153 6 141 143 144
154 6 143 145 146
155 6 145 147 148
156 6 147 149 150
157 6 149 153 154
158 6 153 155 156
159 6 155 157 158
160 6 157 159 160
161 6 159 161 162
162 6 161 164 165
163 6 164 167 168
164 6 167 171 172
165 6 171 173 174
166 6 175 176 177
167 6 176 178 179
168 6 178 181 182
169 6 181 183 184
170 6 183 185 186
171 6 190 191 192
172 6 191 193 194
173 6 193 196 197
174 6 196 199 200
175 6 199 202 203
176 6 202 204 205
177 6 204 206 207
178 6 206 209 210
179 6 209 211 212
180 6 211 213 214
181 6 213 215 216
182 6 217 218 219
183 6 218 222 223
184 6 222 224 225
185 6 224 227 228
186 6 230 231 232
187 6 231 233 234
188 6 233 235 236
189 7 8 9 10
190 7 12 13 14
191 7 15 16 17
192 8 20 21 22
193 8 20 21 23
194 7 28 29 30
195 8 38 39 40
196 8 38 39 41
197 7 48 49 50
198 7 53 54 55
199 8 56 57 58
200 8 56 57 59
201 7 60 61 62
202 8 72 73 74
203 8 72 73 75
204 8 79 80 81
205 8 79 80 82
206 7 84 85 86
207 7 87 88 89
208 8 99 100 101
209 8 99 100 102
210 8 105 106 107
211 8 105 106 108
212 7 116 117 118
213 7 121 122 123
214 9 129 130 131
215 10 129 130 132
216 7 134 135 136
217 8 149 150 151
218 8 149 150 152
219 7 161 162 163
220 7 164 165 166
221 8 167 168 169
222 8 167 168 170
223 7 178 179 180
224 8 185 186 187
225 8 185 186 188
226 7 193 194 195
227 7 196 197 198
228 7 199 200 201
229 7 206 207 208
230 8 218 219 220
231 8 218 219 221
232 7 224 225 226
233 7 227 228 229

Dihedrals

1 1 4 6 8 11
2 1 6 8 11 12
3 1 8 11 12 15
4 1 11 12 15 18
5 1 12 15 18 20
6 1 15 18 20 24
7 1 18 20 24 26
8 1 20 24 26 28
9 1 111 113 114 116
10 1 113 114 116 119
11 1 137 139 141 143
12 1 139 141 143 145
13 1 141 143 145 147
14 1 143 145 147 149
15 1 159 161 164 167
16 1 199 202 204 206
17 1 202 204 206 209
18 1 204 206 209 211
19 1 206 209 211 213
20 1 209 211 213 215
21 1 211 213 215 217
22 1 213 215 217 218
23 1 215 217 218 222
24 1 217 218 222 224
25 1 218 222 224 227
26 1 222 224 227 230
27 1 224 227 230 231
28 1 227 230 231 233

Impropers

1 1 20 22 23 21
2 1 38 40 41 39
3 1 56 58 59 57
4 1 72 74 75 73
5 1 79 81 82 80
6 1 99 101 102 100
7 1 105 107 108 106
8 1 129 131 132 130
9 2 130 131 133 132
10 1 149 151 152 150
11 1 167 169 170 168
12 1 185 187 188 186
13 1 218 220 221 219

