comment

236 atoms
248 bonds
233 angles
28 dihedrals
13 impropers

17 atom types
17 bond types
10 angle types
1 dihedral types
2 improper types

-40.5 40.5 xlo xhi
-40.5 40.5 ylo yhi
-190.0 190.0 zlo zhi

Masses

1 72.0
2 72.0
3 72.0
4 72.0
5 72.0
6 72.0
7 72.0
8 72.0
9 72.0
10 45.0
11 72.0
12 72.0
13 72.0
14 45.0
15 45.0
16 72.0
17 45.0

PairIJ Coeffs

1 1 1.19503 4.699999999999999
1 2 1.3384336 4.699999999999999
1 3 1.3384336 4.699999999999999
1 4 0.956024 4.699999999999999
1 5 0.478012 4.699999999999999
1 6 0.5497137999999999 4.699999999999999
1 7 0.836521 4.699999999999999
1 8 0.478012 4.699999999999999
1 9 1.19503 4.699999999999999
1 10 0.7409186 4.699999999999999
1 11 1.3384336 4.699999999999999
1 12 1.19503 4.699999999999999
1 13 0.7409186 4.699999999999999
1 14 0.6453162 4.699999999999999
1 15 1.19503 4.699999999999999
1 16 1.19503 4.699999999999999
1 17 0.956024 4.699999999999999
2 2 1.3384336 4.699999999999999
2 3 1.3384336 4.699999999999999
2 4 1.19503 4.699999999999999
2 5 0.5497137999999999 4.699999999999999
2 6 0.6453162 4.699999999999999
2 7 0.836521 4.699999999999999
2 8 0.478012 4.699999999999999
2 9 1.19503 4.699999999999999
2 10 0.7409186 4.699999999999999
2 11 1.3384336 4.699999999999999
2 12 1.19503 4.699999999999999
2 13 0.7409186 4.699999999999999
2 14 0.6453162 4.699999999999999
2 15 1.3384336 4.699999999999999
2 16 1.3384336 4.699999999999999
2 17 1.19503 4.699999999999999
3 3 1.19503 4.699999999999999
3 4 1.19503 4.699999999999999
3 5 0.478012 4.699999999999999
3 6 0.5497137999999999 4.699999999999999
3 7 0.836521 4.699999999999999
3 8 0.478012 4.699999999999999
3 9 0.956024 4.699999999999999
3 10 0.7409186 4.699999999999999
3 11 1.3384336 4.699999999999999
3 12 1.19503 4.699999999999999
3 13 0.7409186 4.699999999999999
3 14 0.6453162 4.699999999999999
3 15 1.19503 4.699999999999999
3 16 1.19503 4.699999999999999
3 17 1.19503 4.699999999999999
4 4 0.956024 4.699999999999999
4 5 0.6453162 4.699999999999999
4 6 0.6453162 4.699999999999999
4 7 0.836521 4.699999999999999
4 8 0.6453162 4.699999999999999
4 9 1.075527 4.699999999999999
4 10 0.836521 4.699999999999999
4 11 0.956024 4.699999999999999
4 12 1.075527 4.699999999999999
4 13 0.836521 4.699999999999999
4 14 0.7409186 4.699999999999999
4 15 1.075527 4.699999999999999
4 16 1.075527 4.699999999999999
4 17 0.956024 4.699999999999999
5 5 0.836521 4.699999999999999
5 6 0.836521 4.699999999999999
5 7 0.7409186 4.699999999999999
5 8 0.836521 4.699999999999999
5 9 0.6453162 4.699999999999999
5 10 0.7409186 4.699999999999999
5 11 0.5497137999999999 4.699999999999999
5 12 0.6453162 4.699999999999999
5 13 0.7409186 4.699999999999999
5 14 0.7409186 4.699999999999999
5 15 0.7409186 4.699999999999999
5 16 0.7409186 4.699999999999999
5 17 0.6453162 4.699999999999999
6 6 0.836521 4.699999999999999
6 7 0.836521 4.699999999999999
6 8 0.836521 4.699999999999999
6 9 0.6453162 4.699999999999999
6 10 0.836521 4.699999999999999
6 11 0.6453162 4.699999999999999
6 12 0.6453162 4.699999999999999
6 13 0.836521 4.699999999999999
6 14 0.836521 4.699999999999999
6 15 0.836521 4.699999999999999
6 16 0.836521 4.699999999999999
6 17 0.6453162 4.699999999999999
7 7 0.836521 4.699999999999999
7 8 0.6453162 4.699999999999999
7 9 0.836521 4.699999999999999
7 10 0.836521 4.699999999999999
7 11 0.836521 4.699999999999999
7 12 0.836521 4.699999999999999
7 13 0.836521 4.699999999999999
7 14 0.836521 4.699999999999999
7 15 0.956024 4.699999999999999
7 16 0.956024 4.699999999999999
7 17 0.836521 4.699999999999999
8 8 0.836521 4.699999999999999
8 9 0.6453162 4.699999999999999
8 10 0.7409186 4.699999999999999
8 11 0.478012 4.699999999999999
8 12 0.6453162 4.699999999999999
8 13 0.7409186 4.699999999999999
8 14 0.7409186 4.699999999999999
8 15 0.6453162 4.699999999999999
8 16 0.6453162 4.699999999999999
8 17 0.6453162 4.699999999999999
9 9 0.956024 4.699999999999999
9 10 0.836521 4.699999999999999
9 11 0.956024 4.699999999999999
9 12 1.075527 4.699999999999999
9 13 0.836521 4.699999999999999
9 14 0.7409186 4.699999999999999
9 15 1.075527 4.699999999999999
9 16 1.075527 4.699999999999999
9 17 1.075527 4.699999999999999
10 10 0.62739075 4.3
10 11 0.7409186 4.699999999999999
10 12 0.836521 4.699999999999999
10 13 0.836521 4.699999999999999
10 14 0.62739075 4.3
10 15 0.62739075 4.3
10 16 0.836521 4.699999999999999
10 17 0.62739075 4.3
11 11 1.19503 4.699999999999999
11 12 0.956024 4.699999999999999
11 13 0.7409186 4.699999999999999
11 14 0.6453162 4.699999999999999
11 15 1.075527 4.699999999999999
11 16 1.075527 4.699999999999999
11 17 0.956024 4.699999999999999
12 12 1.075527 4.699999999999999
12 13 0.836521 4.699999999999999
12 14 0.7409186 4.699999999999999
12 15 1.075527 4.699999999999999
12 16 1.075527 4.699999999999999
12 17 1.075527 4.699999999999999
13 13 0.836521 4.699999999999999
13 14 0.836521 4.699999999999999
13 15 0.836521 4.699999999999999
13 16 0.836521 4.699999999999999
13 17 0.836521 4.699999999999999
14 14 0.62739075 4.3
14 15 0.62739075 4.3
14 16 0.836521 4.699999999999999
14 17 0.5556889500000001 4.3
15 15 0.80664525 4.3
15 16 1.075527 4.699999999999999
15 17 0.80664525 4.3
16 16 1.075527 4.699999999999999
16 17 1.075527 4.699999999999999
17 17 0.7170179999999999 4.3

Bond Coeffs

1 1.4937875 3.5
2 8.962725 3.2
3 5.97515 4.0
4 5.97515 3.3000000000000003
5 5.97515 2.8000000000000003
6 8.962725 3.1
7 8.962725 3.0
8 5.97515 3.2
9 8.962725 3.3000000000000003
10 5.97515 3.4000000000000004
11 5.97515 3.0
12 2.987575 4.0
13 11.9503 3.3000000000000003
14 11.9503 3.1
15 11.9503 2.6500000000000004
16 11.9503 2.7
17 11.9503 2.6

Angle Coeffs

1 2.39006 127
2 83.6521 96
3 2.39006 100
4 2.39006 130
5 11.9503 98
6 2.987575 100
7 2.987575 180
8 5.97515 150
9 5.97515 210
10 5.97515 90

Dihedral Coeffs

1 95.6024 1 -120 0

Improper Coeffs

1 5.97515 0
2 23.9006 0

Atoms

1 1 1 1.0000 1.2549999 -0.027 -48.818
2 1 2 0.0000 0.0376436 0.156585 -50.908398
3 1 3 -1.0000 -1.3944399 -0.613984 -53.1277
4 1 4 0.0000 1.82921 2.14365 -54.204704
5 1 5 0.0000 2.82134 0.20162201 -55.907997
6 1 4 0.0000 1.6754501 5.29285 -54.534603
7 1 3 -1.0000 -1.72333 6.1489897 -55.3347
8 1 4 0.0000 4.68196 6.14588 -55.760597
9 1 6 0.0000 7.06248 4.14388 -54.9514
10 1 1 1.0000 8.926929 2.39624 -56.7392
11 1 4 0.0000 4.19164 4.83511 -58.984398
12 1 7 0.0000 1.85306 6.79559 -59.942097
13 1 6 0.0000 -1.4240899 6.5921 -60.903202
14 1 1 1.0000 -3.88518 6.0886803 -59.7681
15 1 7 0.0000 3.5995297 9.90816 -59.402397
16 1 6 0.0000 1.8352599 10.830099 -56.5769
17 1 1 1.0000 0.086644806 10.326 -54.338398
18 1 7 0.0000 6.09365 9.34537 -61.626602
19 1 8 0.0000 7.9016695 7.29599 -60.851597
20 1 9 0.0000 4.41749 9.8112 -64.344
21 1 10 0.0000 4.98743 9.39394 -67.4804
22 1 10 0.0000 4.78883 9.57188 -70.092606
23 1 10 0.0000 7.1345596 9.30969 -69.2261
24 1 9 0.0000 3.66885 12.8353 -63.4328
25 1 5 0.0000 0.955064 14.049999 -62.982796
26 1 9 0.0000 6.40078 14.0835 -63.034702
27 1 11 0.0000 4.60781 17.3596 -65.4559
28 1 9 0.0000 7.8491597 13.422199 -66.0848
29 1 6 0.0000 9.94648 10.8924 -64.963295
30 1 1 1.0000 11.0962 8.74937 -65.4314
31 1 12 0.0000 6.94426 14.387501 -69.3687
32 1 13 0.0000 8.35427 13.896 -71.7716
33 1 7 0.0000 3.77564 14.4581995 -69.2404
34 1 12 0.0000 1.47037 12.961101 -67.7482
35 1 11 0.0000 -1.56188 15.5101 -68.0483
36 1 12 0.0000 -0.0374319 12.309299 -71.4006
37 1 13 0.0000 -0.423284 15.4909 -71.257
38 1 2 0.0000 -0.545062 9.1903105 -70.541504
39 1 14 0.0000 1.40175 7.73757 -72.3635
40 1 15 0.0000 3.1599102 5.84612 -72.4476
41 1 15 0.0000 3.8616202 7.6200004 -73.8435
42 1 2 0.0000 -3.63368 7.2610497 -70.691
43 1 16 0.0000 -4.60955 7.99113 -73.150604
44 1 2 0.0000 -4.10006 6.32146 -68.121
45 1 5 0.0000 -3.32795 4.09705 -67.3452
46 1 2 0.0000 -7.17644 6.3970604 -65.371796
47 1 3 -1.0000 -5.4393396 9.15656 -62.8203
48 1 12 0.0000 -10.3585005 4.14442 -64.6898
49 1 6 0.0000 -11.982 2.75078 -61.6831
50 1 1 1.0000 -11.6485 1.9535799 -58.3427
51 1 12 0.0000 -12.199 5.9267 -66.840805
52 1 2 0.0000 -9.20088 8.234819 -67.1252
53 1 2 0.0000 -10.0202 10.878901 -66.345505
54 1 6 0.0000 -10.626301 9.4325695 -62.6123
55 1 1 1.0000 -9.44642 7.4036098 -60.9919
56 1 2 0.0000 -9.211639 12.732901 -70.4609
57 1 14 0.0000 -10.685901 10.4985 -71.8754
58 1 15 0.0000 -9.64156 8.352739 -72.1746
59 1 15 0.0000 -12.044 7.9986296 -72.2461
60 1 2 0.0000 -4.83217 12.7192 -71.5533
61 1 6 0.0000 -5.09332 11.550501 -68.3287
62 1 1 1.0000 -3.28689 11.0212 -66.417
63 1 2 0.0000 -2.3901901 12.3145 -75.524994
64 1 16 0.0000 -3.3906298 14.492199 -76.449196
65 1 2 0.0000 -1.02619 9.534 -76.3867
66 1 11 0.0000 -0.16818199 6.79397 -77.0019
67 1 6 0.0000 1.59554 6.1652703 -79.0868
68 1 2 0.0000 -1.36411 4.11006 -74.8022
69 1 2 0.0000 -4.30029 4.0163903 -76.4321
70 1 2 0.0000 -2.22512 2.30105 -72.2763
71 1 8 0.0000 -0.307451 2.12581 -69.7531
72 1 12 0.0000 -5.95092 3.04873 -74.013
73 1 14 0.0000 -7.27332 3.9901302 -71.3063
74 1 15 0.0000 -9.63295 4.08574 -70.6774
75 1 15 0.0000 -8.04193 3.0657 -68.7934
76 1 12 0.0000 -7.3063602 -0.604111 -72.8245
77 1 2 0.0000 -5.52635 -1.90796 -71.0636
78 1 8 0.0000 -4.01162 -0.48527503 -68.5858
79 1 12 0.0000 -5.67141 -5.3472 -70.1472
80 1 10 0.0000 -5.01443 -6.12163 -67.4248
81 1 10 0.0000 -3.8323598 -5.0957603 -65.1346
82 1 10 0.0000 -5.95134 -6.9219103 -64.916
83 1 12 0.0000 -5.54689 -7.98402 -72.8191
84 1 2 0.0000 -4.13175 -6.8434 -75.8824
85 1 7 0.0000 -4.1563697 -3.9315798 -75.4603
86 1 1 1.0000 -4.47325 -0.96467197 -77.1079
87 1 2 0.0000 -3.1188102 -7.7524605 -79.052704
88 1 6 0.0000 -1.21876 -9.29966 -80.540306
89 1 1 1.0000 0.296156 -11.5766 -79.9199
90 1 12 0.0000 -1.71296 -4.1086903 -80.4142
91 1 16 0.0000 0.323467 -3.55414 -78.882095
92 1 12 0.0000 -4.81666 -2.5934 -81.8105
93 1 2 0.0000 -8.357161 -0.777009 -80.993996
94 1 11 0.0000 -9.21408 -3.41608 -77.863304
95 1 11 0.0000 -9.00602 1.7959701 -77.9792
96 1 7 0.0000 -10.4284 4.08602 -75.896
97 1 6 0.0000 -12.832201 3.4564998 -74.2101
98 1 12 0.0000 -8.54742 6.94053 -77.111404
99 1 2 0.0000 -7.59481 5.1497 -80.4055
100 1 10 0.0000 -7.78926 7.5718203 -82.4656
101 1 10 0.0000 -6.19697 7.3228 -84.74921
102 1 10 0.0000 -6.78617 9.62839 -83.4041
103 1 2 0.0000 -4.5640798 2.93617 -81.50369
104 1 16 0.0000 -5.1845 2.47093 -84.244095
105 1 2 0.0000 -2.30229 5.1561804 -81.60989
106 1 14 0.0000 -3.19348 7.816 -81.00371
107 1 14 0.0000 -4.86438 9.05195 -79.3029
108 1 15 0.0000 -3.2308002 10.3413 -80.548004
109 1 2 0.0000 -1.5597899 4.79143 -85.2222
110 1 16 0.0000 -2.34467 6.27737 -87.2585
111 1 4 0.0000 1.58226 3.5268 -85.1236
112 1 3 -1.0000 1.88704 1.95841 -88.062
113 1 7 0.0000 2.40644 2.33232 -82.43089
114 1 12 0.0000 -0.301113 0.585316 -81.6742
115 1 2 0.0000 -0.20952201 1.1549 -78.634705
116 1 12 0.0000 -0.17727199 -1.35399 -84.0672
117 1 6 0.0000 -2.2141001 -1.19465 -86.529305
118 1 1 1.0000 -2.43767 0.490152 -88.2162
119 1 9 0.0000 2.98965 -2.8961701 -83.509995
120 1 2 0.0000 4.24869 -2.23721 -86.5512
121 1 2 0.0000 4.62395 -4.92387 -81.7585
122 1 6 0.0000 8.11338 -5.2405 -80.9958
123 1 1 1.0000 10.2407 -5.60369 -78.980194
124 1 2 0.0000 3.12468 -7.21173 -79.8677
125 1 2 0.0000 1.7246599 -7.8651705 -76.5298
126 1 8 0.0000 3.52914 -10.476299 -76.4402
127 1 2 0.0000 -0.16659999 -8.87308 -73.3337
128 1 16 0.0000 -1.5525501 -10.752601 -74.3926
129 1 2 0.0000 -0.690931 -7.98955 -69.7575
130 1 14 0.0000 -0.949075 -5.1471195 -70.693596
131 1 17 0.0000 -0.64429 -2.7304 -71.540596
132 1 10 0.0000 0.403894 -4.679 -73.1103
133 1 10 0.0000 0.714669 -2.23502 -73.6997
134 1 2 0.0000 0.446809 -8.50926 -66.5528
135 1 6 0.0000 2.8919 -10.8006 -66.8636
136 1 1 1.0000 5.08682 -11.6401005 -64.9977
137 1 4 0.0000 2.73249 -6.1583605 -65.6915
138 1 3 -1.0000 5.6172 -7.79617 -62.6277
139 1 4 0.0000 5.17177 -7.30365 -67.3483
140 1 3 -1.0000 6.4299 -7.8877997 -63.0785
141 1 4 0.0000 4.15795 -6.1431904 -70.4666
142 1 16 0.0000 4.93991 -8.01915 -71.8588
143 1 12 0.0000 4.1236696 -3.08471 -69.5867
144 1 8 0.0000 3.83021 -0.21406399 -70.2798
145 1 9 0.0000 7.43469 -3.0297399 -68.6766
146 1 13 0.0000 9.971169 -6.47568 -66.8864
147 1 9 0.0000 8.78232 -3.64177 -71.473495
148 1 3 -1.0000 11.5617 -4.16737 -74.5653
149 1 9 0.0000 7.7260103 -1.0712 -72.9604
150 1 14 0.0000 5.66535 0.615074 -74.8768
151 1 14 0.0000 4.46838 2.66624 -75.9543
152 1 15 0.0000 2.96246 1.58628 -74.385
153 1 12 0.0000 9.331759 1.4944 -71.3501
154 1 8 0.0000 7.33614 3.0271199 -69.7758
155 1 12 0.0000 12.6658 1.20717 -72.413605
156 1 3 -1.0000 16.253601 -0.103401996 -71.4313
157 1 2 0.0000 12.759399 3.95525 -74.1001
158 1 2 0.0000 14.8515 5.7047405 -74.867004
159 1 7 0.0000 9.89478 3.9169698 -75.3966
160 1 6 0.0000 8.25197 5.7834396 -73.9615
161 1 12 0.0000 10.9578 3.42155 -78.5332
162 1 6 0.0000 12.9223 6.10811 -79.4835
163 1 1 1.0000 11.314 8.905 -80.0183
164 1 12 0.0000 11.469999 0.41232002 -78.5207
165 1 6 0.0000 14.5232 0.0939282 -77.5241
166 1 1 1.0000 15.2147 -1.49032 -75.6752
167 1 12 0.0000 8.78409 -0.983027 -78.0998
168 1 14 0.0000 6.23448 -3.0353298 -76.9262
169 1 14 0.0000 4.37451 -3.86311 -75.2282
170 1 15 0.0000 6.34955 -5.36385 -75.7581
171 1 2 0.0000 6.58735 0.294189 -80.382996
172 1 8 0.0000 3.8984501 -0.8592 -79.2587
173 1 7 0.0000 7.2730103 0.367399 -84.0411
174 1 6 0.0000 9.68114 -1.79958 -84.74361
175 1 12 0.0000 8.47723 3.77411 -83.1517
176 1 2 0.0000 6.08274 4.7782497 -80.2581
177 1 16 0.0000 6.65623 6.1899195 -78.4903
178 1 2 0.0000 4.74462 7.38675 -83.2755
179 1 6 0.0000 6.01859 5.43437 -85.7843
180 1 1 1.0000 6.1351004 3.72293 -87.5484
181 1 2 0.0000 1.82225 8.53213 -83.9291
182 1 13 0.0000 2.30552 8.02137 -87.950294
183 1 2 0.0000 1.6144501 10.900299 -80.5643
184 1 8 0.0000 0.206796 13.5574 -80.5132
185 1 2 0.0000 4.28478 10.661401 -77.8871
186 1 10 0.0000 3.02693 13.327 -76.135605
187 1 10 0.0000 3.4135299 14.787001 -74.1038
188 1 10 0.0000 1.49812 15.759899 -75.5685
189 1 11 0.0000 7.44851 11.202499 -76.8715
190 1 2 0.0000 10.087 9.97338 -74.285
191 1 2 0.0000 11.423 7.72797 -70.6992
192 1 8 0.0000 12.5166 10.1484 -69.4467
193 1 2 0.0000 12.163 4.5482597 -68.667404
194 1 6 0.0000 14.906799 4.47686 -69.9351
195 1 1 1.0000 16.970001 4.80307 -69.7279
196 1 2 0.0000 15.2673 1.42515 -65.9072
197 1 6 0.0000 17.6478 2.78206 -64.0067
198 1 1 1.0000 17.2858 4.2839804 -61.9151
199 1 4 0.0000 14.334499 -0.83583 -63.5858
200 1 6 0.0000 12.0601 -3.58536 -62.4916
201 1 1 1.0000 9.06785 -4.4348803 -61.5523
202 1 4 0.0000 12.978899 1.05807 -61.464
203 1 16 0.0000 12.185 0.242349 -59.1573
204 1 4 0.0000 11.8598995 3.4368398 -63.7682
205 1 3 -1.0000 15.0238 6.50459 -65.3587
206 1 4 0.0000 10.175 1.4339601 -65.4729
207 1 7 0.0000 11.760301 -0.93686604 -67.7838
208 1 1 1.0000 13.291 -3.2199202 -70.3018
209 1 7 0.0000 8.78789 -0.104311 -63.221596
210 1 3 -1.0000 6.91725 -1.32439 -59.0689
211 1 7 0.0000 7.20841 2.4403 -61.894203
212 1 3 -1.0000 6.29343 0.0650163 -59.5117
213 1 7 0.0000 5.66911 3.17201 -64.6216
214 1 8 0.0000 7.54497 5.60289 -65.7345
215 1 7 0.0000 4.2453103 0.547971 -64.8863
216 1 8 0.0000 4.7641997 -2.21342 -64.8989
217 1 13 0.0000 2.36708 1.1788299 -61.9527
218 1 7 0.0000 0.53048396 3.0135899 -63.1588
219 1 14 0.0000 1.5494 5.4511 -64.6349
220 1 14 0.0000 2.3431602 5.96291 -67.1163
221 1 15 0.0000 0.433859 7.58349 -65.6928
222 1 7 0.0000 -0.869487 0.524655 -65.1168
223 1 8 0.0000 0.288221 -2.10313 -66.599495
224 1 7 0.0000 -1.9379101 -1.10123 -62.614002
225 1 6 0.0000 0.97185796 -3.1868699 -62.188904
226 1 1 1.0000 3.45413 -3.8141701 -60.7819
227 1 9 0.0000 -3.3437202 1.3062 -61.504997
228 1 6 0.0000 -2.91396 1.3830299 -58.0283
229 1 1 1.0000 -4.31691 2.24051 -55.5656
230 1 7 0.0000 -5.4754 1.80012 -63.8557
231 1 9 0.0000 -6.9705896 -1.0317 -63.698402
232 1 16 0.0000 -8.12185 -1.56162 -66.0344
233 1 9 0.0000 -8.31483 -0.85102606 -60.527
234 1 2 0.0000 -5.9280596 -2.10461 -58.957703
235 1 3 -1.0000 -7.37136 2.5511198 -59.5537
236 1 3 -1.0000 -8.0325 4.89045 -57.565998

Bonds

1 1 1 2
2 1 31 33
3 1 33 34
4 1 34 36
5 1 36 38
6 1 38 42
7 1 42 44
8 1 44 46
9 1 46 48
10 1 48 51
11 1 51 52
12 1 52 53
13 1 53 56
14 1 56 60
15 1 60 63
16 1 63 65
17 1 65 66
18 1 66 68
19 1 68 70
20 1 70 72
21 1 72 76
22 1 76 77
23 1 77 79
24 1 79 83
25 1 83 84
26 1 84 87
27 1 87 90
28 1 90 92
29 1 92 93
30 1 93 95
31 1 95 96
32 1 96 98
33 1 98 99
34 1 99 103
35 1 103 105
36 1 105 109
37 1 121 124
38 1 124 125
39 1 125 127
40 1 127 129
41 1 129 134
42 1 153 155
43 1 155 157
44 1 171 173
45 1 173 175
46 1 175 176
47 1 176 178
48 1 178 181
49 1 181 183
50 1 183 185
51 1 185 189
52 1 189 190
53 1 190 191
54 1 191 193
55 1 193 196
56 2 2 3
57 3 6 7
58 4 8 9
59 5 9 10
60 4 12 13
61 5 13 14
62 4 15 16
63 5 16 17
64 6 20 21
65 3 26 27
66 4 28 29
67 5 29 30
68 6 31 32
69 3 34 35
70 6 36 37
71 2 38 39
72 3 46 47
73 4 48 49
74 5 49 50
75 4 53 54
76 5 54 55
77 2 56 57
78 4 60 61
79 5 61 62
80 7 66 67
81 8 68 69
82 9 70 71
83 2 72 73
84 9 77 78
85 6 79 80
86 4 84 85
87 10 85 86
88 4 87 88
89 5 88 89
90 3 93 94
91 7 96 97
92 6 99 100
93 8 105 106
94 2 111 112
95 8 114 115
96 4 116 117
97 5 117 118
98 8 119 120
99 4 121 122
100 5 122 123
101 11 129 130
102 4 134 135
103 5 135 136
104 3 137 138
105 3 139 140
106 9 143 144
107 12 145 146
108 3 147 148
109 8 149 150
110 9 153 154
111 3 155 156
112 8 157 158
113 7 159 160
114 4 161 162
115 5 162 163
116 4 164 165
117 5 165 166
118 8 167 168
119 7 173 174
120 4 178 179
121 5 179 180
122 12 181 182
123 6 185 186
124 4 193 194
125 5 194 195
126 4 196 197
127 5 197 198
128 4 199 200
129 5 200 201
130 3 204 205
131 4 206 207
132 10 207 208
133 3 209 210
134 2 211 212
135 9 213 214
136 8 218 219
137 9 222 223
138 4 224 225
139 5 225 226
140 4 227 228
141 5 228 229
142 8 233 234
143 3 235 236
144 13 2 4
145 14 4 6
146 14 6 8
147 14 8 11
148 14 11 12
149 14 12 15
150 14 15 18
151 14 18 20
152 14 20 24
153 14 24 26
154 14 26 28
155 13 28 31
156 13 109 111
157 14 111 113
158 14 113 114
159 14 114 116
160 14 116 119
161 13 119 121
162 13 134 137
163 14 137 139
164 14 139 141
165 14 141 143
166 14 143 145
167 14 145 147
168 14 147 149
169 13 149 153
170 13 157 159
171 14 159 161
172 14 161 164
173 14 164 167
174 13 167 171
175 13 196 199
176 14 199 202
177 14 202 204
178 14 204 206
179 14 206 209
180 14 209 211
181 14 211 213
182 14 213 215
183 14 215 217
184 14 217 218
185 14 218 222
186 14 222 224
187 14 224 227
188 14 227 230
189 14 230 231
190 14 231 233
191 13 233 235
192 15 4 5
193 14 18 19
194 16 21 22
195 16 21 23
196 16 22 23
197 15 24 25
198 16 39 40
199 16 39 41
200 16 40 41
201 17 42 43
202 15 44 45
203 16 57 58
204 16 57 59
205 16 58 59
206 17 63 64
207 16 73 74
208 16 73 75
209 16 74 75
210 16 80 81
211 16 80 82
212 16 81 82
213 17 90 91
214 16 100 101
215 16 100 102
216 16 101 102
217 17 103 104
218 16 106 107
219 16 106 108
220 16 107 108
221 17 109 110
222 14 125 126
223 17 127 128
224 16 130 131
225 16 130 132
226 16 131 132
227 16 131 133
228 16 132 133
229 17 141 142
230 16 150 151
231 16 150 152
232 16 151 152
233 16 168 169
234 16 168 170
235 16 169 170
236 14 171 172
237 17 176 177
238 14 183 184
239 16 186 187
240 16 186 188
241 16 187 188
242 14 191 192
243 17 202 203
244 14 215 216
245 16 219 220
246 16 219 221
247 16 220 221
248 17 231 232

Angles

1 1 1 2 4
2 1 2 4 6
3 2 4 6 8
4 2 6 8 11
5 2 8 11 12
6 2 11 12 15
7 2 12 15 18
8 2 15 18 20
9 2 18 20 24
10 2 20 24 26
11 2 24 26 28
12 3 26 28 31
13 3 28 31 33
14 3 31 33 34
15 3 33 34 36
16 3 34 36 38
17 3 36 38 42
18 1 38 42 44
19 1 42 44 46
20 3 44 46 48
21 3 46 48 51
22 3 48 51 52
23 3 51 52 53
24 1 52 53 56
25 1 53 56 60
26 1 56 60 63
27 1 60 63 65
28 4 63 65 66
29 1 65 66 68
30 1 66 68 70
31 3 68 70 72
32 3 70 72 76
33 3 72 76 77
34 3 76 77 79
35 3 77 79 83
36 3 79 83 84
37 3 83 84 87
38 3 84 87 90
39 3 87 90 92
40 3 90 92 93
41 3 92 93 95
42 1 93 95 96
43 3 95 96 98
44 3 96 98 99
45 3 98 99 103
46 1 99 103 105
47 1 103 105 109
48 1 105 109 111
49 1 109 111 113
50 2 111 113 114
51 2 113 114 116
52 2 114 116 119
53 1 116 119 121
54 1 119 121 124
55 1 121 124 125
56 1 124 125 127
57 1 125 127 129
58 1 127 129 134
59 1 129 134 137
60 4 134 137 139
61 2 137 139 141
62 2 139 141 143
63 2 141 143 145
64 2 143 145 147
65 2 145 147 149
66 3 147 149 153
67 3 149 153 155
68 3 153 155 157
69 3 155 157 159
70 5 157 159 161
71 5 159 161 164
72 2 161 164 167
73 4 164 167 171
74 4 167 171 173
75 3 171 173 175
76 3 173 175 176
77 3 175 176 178
78 1 176 178 181
79 1 178 181 183
80 1 181 183 185
81 1 183 185 189
82 1 185 189 190
83 1 189 190 191
84 1 190 191 193
85 1 191 193 196
86 1 193 196 199
87 4 196 199 202
88 2 199 202 204
89 2 202 204 206
90 2 204 206 209
91 2 206 209 211
92 2 209 211 213
93 2 211 213 215
94 2 213 215 217
95 2 215 217 218
96 2 217 218 222
97 2 218 222 224
98 2 222 224 227
99 2 224 227 230
100 2 227 230 231
101 2 230 231 233
102 1 231 233 235
103 6 1 2 3
104 6 2 4 5
105 6 4 6 7
106 6 6 8 9
107 6 11 12 13
108 6 12 15 16
109 6 15 18 19
110 6 18 20 21
111 6 20 24 25
112 6 24 26 27
113 6 26 28 29
114 6 28 31 32
115 6 33 34 35
116 6 34 36 37
117 6 36 38 39
118 6 38 42 43
119 6 42 44 45
120 6 44 46 47
121 6 46 48 49
122 6 52 53 54
123 6 53 56 57
124 6 56 60 61
125 6 60 63 64
126 6 65 66 67
127 6 66 68 69
128 6 68 70 71
129 6 70 72 73
130 6 76 77 78
131 6 77 79 80
132 6 83 84 85
133 6 84 87 88
134 6 87 90 91
135 6 92 93 94
136 6 95 96 97
137 6 98 99 100
138 6 99 103 104
139 6 103 105 106
140 6 105 109 110
141 6 109 111 112
142 6 113 114 115
143 6 114 116 117
144 6 116 119 120
145 6 119 121 122
146 6 124 125 126
147 6 125 127 128
148 6 127 129 130
149 6 129 134 135
150 6 134 137 138
151 6 137 139 140
152 6 139 141 142
153 6 141 143 144
154 6 143 145 146
155 6 145 147 148
156 6 147 149 150
157 6 149 153 154
158 6 153 155 156
159 6 155 157 158
160 6 157 159 160
161 6 159 161 162
162 6 161 164 165
163 6 164 167 168
164 6 167 171 172
165 6 171 173 174
166 6 175 176 177
167 6 176 178 179
168 6 178 181 182
169 6 181 183 184
170 6 183 185 186
171 6 190 191 192
172 6 191 193 194
173 6 193 196 197
174 6 196 199 200
175 6 199 202 203
176 6 202 204 205
177 6 204 206 207
178 6 206 209 210
179 6 209 211 212
180 6 211 213 214
181 6 213 215 216
182 6 217 218 219
183 6 218 222 223
184 6 222 224 225
185 6 224 227 228
186 6 230 231 232
187 6 231 233 234
188 6 233 235 236
189 7 8 9 10
190 7 12 13 14
191 7 15 16 17
192 8 20 21 22
193 8 20 21 23
194 7 28 29 30
195 8 38 39 40
196 8 38 39 41
197 7 48 49 50
198 7 53 54 55
199 8 56 57 58
200 8 56 57 59
201 7 60 61 62
202 8 72 73 74
203 8 72 73 75
204 8 79 80 81
205 8 79 80 82
206 7 84 85 86
207 7 87 88 89
208 8 99 100 101
209 8 99 100 102
210 8 105 106 107
211 8 105 106 108
212 7 116 117 118
213 7 121 122 123
214 9 129 130 131
215 10 129 130 132
216 7 134 135 136
217 8 149 150 151
218 8 149 150 152
219 7 161 162 163
220 7 164 165 166
221 8 167 168 169
222 8 167 168 170
223 7 178 179 180
224 8 185 186 187
225 8 185 186 188
226 7 193 194 195
227 7 196 197 198
228 7 199 200 201
229 7 206 207 208
230 8 218 219 220
231 8 218 219 221
232 7 224 225 226
233 7 227 228 229

Dihedrals

1 1 4 6 8 11
2 1 6 8 11 12
3 1 8 11 12 15
4 1 11 12 15 18
5 1 12 15 18 20
6 1 15 18 20 24
7 1 18 20 24 26
8 1 20 24 26 28
9 1 111 113 114 116
10 1 113 114 116 119
11 1 137 139 141 143
12 1 139 141 143 145
13 1 141 143 145 147
14 1 143 145 147 149
15 1 159 161 164 167
16 1 199 202 204 206
17 1 202 204 206 209
18 1 204 206 209 211
19 1 206 209 211 213
20 1 209 211 213 215
21 1 211 213 215 217
22 1 213 215 217 218
23 1 215 217 218 222
24 1 217 218 222 224
25 1 218 222 224 227
26 1 222 224 227 230
27 1 224 227 230 231
28 1 227 230 231 233

Impropers

1 1 20 22 23 21
2 1 38 40 41 39
3 1 56 58 59 57
4 1 72 74 75 73
5 1 79 81 82 80
6 1 99 101 102 100
7 1 105 107 108 106
8 1 129 131 132 130
9 2 130 131 133 132
10 1 149 151 152 150
11 1 167 169 170 168
12 1 185 187 188 186
13 1 218 220 221 219

