comment

236 atoms
248 bonds
233 angles
28 dihedrals
13 impropers

17 atom types
17 bond types
10 angle types
1 dihedral types
2 improper types

-40.5 40.5 xlo xhi
-40.5 40.5 ylo yhi
-190.0 190.0 zlo zhi

Masses

1 72.0
2 72.0
3 72.0
4 72.0
5 72.0
6 72.0
7 72.0
8 72.0
9 72.0
10 45.0
11 72.0
12 72.0
13 72.0
14 45.0
15 45.0
16 72.0
17 45.0

PairIJ Coeffs

1 1 1.19503 4.699999999999999
1 2 1.3384336 4.699999999999999
1 3 1.3384336 4.699999999999999
1 4 0.956024 4.699999999999999
1 5 0.478012 4.699999999999999
1 6 0.5497137999999999 4.699999999999999
1 7 0.836521 4.699999999999999
1 8 0.478012 4.699999999999999
1 9 1.19503 4.699999999999999
1 10 0.7409186 4.699999999999999
1 11 1.3384336 4.699999999999999
1 12 1.19503 4.699999999999999
1 13 0.7409186 4.699999999999999
1 14 0.6453162 4.699999999999999
1 15 1.19503 4.699999999999999
1 16 1.19503 4.699999999999999
1 17 0.956024 4.699999999999999
2 2 1.3384336 4.699999999999999
2 3 1.3384336 4.699999999999999
2 4 1.19503 4.699999999999999
2 5 0.5497137999999999 4.699999999999999
2 6 0.6453162 4.699999999999999
2 7 0.836521 4.699999999999999
2 8 0.478012 4.699999999999999
2 9 1.19503 4.699999999999999
2 10 0.7409186 4.699999999999999
2 11 1.3384336 4.699999999999999
2 12 1.19503 4.699999999999999
2 13 0.7409186 4.699999999999999
2 14 0.6453162 4.699999999999999
2 15 1.3384336 4.699999999999999
2 16 1.3384336 4.699999999999999
2 17 1.19503 4.699999999999999
3 3 1.19503 4.699999999999999
3 4 1.19503 4.699999999999999
3 5 0.478012 4.699999999999999
3 6 0.5497137999999999 4.699999999999999
3 7 0.836521 4.699999999999999
3 8 0.478012 4.699999999999999
3 9 0.956024 4.699999999999999
3 10 0.7409186 4.699999999999999
3 11 1.3384336 4.699999999999999
3 12 1.19503 4.699999999999999
3 13 0.7409186 4.699999999999999
3 14 0.6453162 4.699999999999999
3 15 1.19503 4.699999999999999
3 16 1.19503 4.699999999999999
3 17 1.19503 4.699999999999999
4 4 0.956024 4.699999999999999
4 5 0.6453162 4.699999999999999
4 6 0.6453162 4.699999999999999
4 7 0.836521 4.699999999999999
4 8 0.6453162 4.699999999999999
4 9 1.075527 4.699999999999999
4 10 0.836521 4.699999999999999
4 11 0.956024 4.699999999999999
4 12 1.075527 4.699999999999999
4 13 0.836521 4.699999999999999
4 14 0.7409186 4.699999999999999
4 15 1.075527 4.699999999999999
4 16 1.075527 4.699999999999999
4 17 0.956024 4.699999999999999
5 5 0.836521 4.699999999999999
5 6 0.836521 4.699999999999999
5 7 0.7409186 4.699999999999999
5 8 0.836521 4.699999999999999
5 9 0.6453162 4.699999999999999
5 10 0.7409186 4.699999999999999
5 11 0.5497137999999999 4.699999999999999
5 12 0.6453162 4.699999999999999
5 13 0.7409186 4.699999999999999
5 14 0.7409186 4.699999999999999
5 15 0.7409186 4.699999999999999
5 16 0.7409186 4.699999999999999
5 17 0.6453162 4.699999999999999
6 6 0.836521 4.699999999999999
6 7 0.836521 4.699999999999999
6 8 0.836521 4.699999999999999
6 9 0.6453162 4.699999999999999
6 10 0.836521 4.699999999999999
6 11 0.6453162 4.699999999999999
6 12 0.6453162 4.699999999999999
6 13 0.836521 4.699999999999999
6 14 0.836521 4.699999999999999
6 15 0.836521 4.699999999999999
6 16 0.836521 4.699999999999999
6 17 0.6453162 4.699999999999999
7 7 0.836521 4.699999999999999
7 8 0.6453162 4.699999999999999
7 9 0.836521 4.699999999999999
7 10 0.836521 4.699999999999999
7 11 0.836521 4.699999999999999
7 12 0.836521 4.699999999999999
7 13 0.836521 4.699999999999999
7 14 0.836521 4.699999999999999
7 15 0.956024 4.699999999999999
7 16 0.956024 4.699999999999999
7 17 0.836521 4.699999999999999
8 8 0.836521 4.699999999999999
8 9 0.6453162 4.699999999999999
8 10 0.7409186 4.699999999999999
8 11 0.478012 4.699999999999999
8 12 0.6453162 4.699999999999999
8 13 0.7409186 4.699999999999999
8 14 0.7409186 4.699999999999999
8 15 0.6453162 4.699999999999999
8 16 0.6453162 4.699999999999999
8 17 0.6453162 4.699999999999999
9 9 0.956024 4.699999999999999
9 10 0.836521 4.699999999999999
9 11 0.956024 4.699999999999999
9 12 1.075527 4.699999999999999
9 13 0.836521 4.699999999999999
9 14 0.7409186 4.699999999999999
9 15 1.075527 4.699999999999999
9 16 1.075527 4.699999999999999
9 17 1.075527 4.699999999999999
10 10 0.62739075 4.3
10 11 0.7409186 4.699999999999999
10 12 0.836521 4.699999999999999
10 13 0.836521 4.699999999999999
10 14 0.62739075 4.3
10 15 0.62739075 4.3
10 16 0.836521 4.699999999999999
10 17 0.62739075 4.3
11 11 1.19503 4.699999999999999
11 12 0.956024 4.699999999999999
11 13 0.7409186 4.699999999999999
11 14 0.6453162 4.699999999999999
11 15 1.075527 4.699999999999999
11 16 1.075527 4.699999999999999
11 17 0.956024 4.699999999999999
12 12 1.075527 4.699999999999999
12 13 0.836521 4.699999999999999
12 14 0.7409186 4.699999999999999
12 15 1.075527 4.699999999999999
12 16 1.075527 4.699999999999999
12 17 1.075527 4.699999999999999
13 13 0.836521 4.699999999999999
13 14 0.836521 4.699999999999999
13 15 0.836521 4.699999999999999
13 16 0.836521 4.699999999999999
13 17 0.836521 4.699999999999999
14 14 0.62739075 4.3
14 15 0.62739075 4.3
14 16 0.836521 4.699999999999999
14 17 0.5556889500000001 4.3
15 15 0.80664525 4.3
15 16 1.075527 4.699999999999999
15 17 0.80664525 4.3
16 16 1.075527 4.699999999999999
16 17 1.075527 4.699999999999999
17 17 0.7170179999999999 4.3

Bond Coeffs

1 1.4937875 3.5
2 8.962725 3.2
3 5.97515 4.0
4 5.97515 3.3000000000000003
5 5.97515 2.8000000000000003
6 8.962725 3.1
7 8.962725 3.0
8 5.97515 3.2
9 8.962725 3.3000000000000003
10 5.97515 3.4000000000000004
11 5.97515 3.0
12 2.987575 4.0
13 11.9503 3.3000000000000003
14 11.9503 3.1
15 11.9503 2.6500000000000004
16 11.9503 2.7
17 11.9503 2.6

Angle Coeffs

1 2.39006 127
2 83.6521 96
3 2.39006 100
4 2.39006 130
5 11.9503 98
6 2.987575 100
7 2.987575 180
8 5.97515 150
9 5.97515 210
10 5.97515 90

Dihedral Coeffs

1 95.6024 1 -120 0

Improper Coeffs

1 5.97515 0
2 23.9006 0

Atoms

1 1 1 1.0000 1.2549999 -0.027 -48.818
2 1 2 0.0000 0.029468 0.21937299 -51.105
3 1 3 -1.0000 -1.2606201 -0.84736896 -53.23
4 1 4 0.0000 2.02843 2.04375 -54.2118
5 1 5 0.0000 3.2393699 0.371584 -55.904396
6 1 4 0.0000 1.7374501 5.15886 -54.7295
7 1 3 -1.0000 -1.731 6.1536 -55.4101
8 1 4 0.0000 4.53827 5.70897 -56.2537
9 1 6 0.0000 6.90476 4.09871 -55.027
10 1 1 1.0000 8.44445 2.3043 -56.6976
11 1 4 0.0000 3.86883 4.47034 -59.3676
12 1 7 0.0000 1.73954 6.9493504 -59.8604
13 1 6 0.0000 -1.66023 6.9334 -60.977997
14 1 1 1.0000 -4.2195997 6.4429803 -59.3865
15 1 7 0.0000 3.7124 9.4261 -59.3117
16 1 6 0.0000 1.98982 10.8889 -57.1872
17 1 1 1.0000 0.140485 10.3813 -55.1524
18 1 7 0.0000 6.24295 9.1894 -61.2808
19 1 8 0.0000 7.91117 6.78415 -60.578697
20 1 9 0.0000 4.86291 9.75362 -64.1397
21 1 10 0.0000 4.98255 9.40416 -67.1941
22 1 10 0.0000 4.7062297 9.44092 -70.0152
23 1 10 0.0000 7.0942597 8.87327 -69.2277
24 1 9 0.0000 3.78804 12.7557 -63.8284
25 1 5 0.0000 1.2641101 13.9475 -63.200996
26 1 9 0.0000 6.70474 14.4314 -63.2734
27 1 11 0.0000 4.54891 17.4775 -65.261696
28 1 9 0.0000 8.06449 13.4365 -66.062996
29 1 6 0.0000 9.835979 10.749701 -65.4325
30 1 1 1.0000 11.275701 8.72153 -64.6565
31 1 12 0.0000 7.22866 14.0862 -69.2031
32 1 13 0.0000 8.184851 13.9812 -72.0457
33 1 7 0.0000 3.58556 14.2877 -69.3014
34 1 12 0.0000 1.2093999 12.6466 -68.0376
35 1 11 0.0000 -1.60498 16.0481 -68.0829
36 1 12 0.0000 -0.36527398 12.3015 -71.2492
37 1 13 0.0000 -0.543259 15.637799 -71.265305
38 1 2 0.0000 -0.876714 8.74956 -70.7373
39 1 14 0.0000 1.2197499 7.3159404 -72.1425
40 1 15 0.0000 3.59638 5.6860104 -72.498
41 1 15 0.0000 3.1693501 7.63223 -74.025
42 1 2 0.0000 -3.74407 7.46283 -70.9483
43 1 16 0.0000 -4.8739 8.05737 -73.4517
44 1 2 0.0000 -4.6462398 6.51459 -67.9314
45 1 5 0.0000 -3.27011 4.0979 -67.51
46 1 2 0.0000 -7.2608204 6.63765 -65.5975
47 1 3 -1.0000 -5.72863 9.43474 -62.799103
48 1 12 0.0000 -10.4456 4.04949 -64.9418
49 1 6 0.0000 -11.6824 3.02881 -62.002903
50 1 1 1.0000 -11.8615 1.68494 -58.7853
51 1 12 0.0000 -12.4841 6.25654 -66.7691
52 1 2 0.0000 -9.67359 8.39826 -67.4694
53 1 2 0.0000 -10.5844 11.5617 -65.8579
54 1 6 0.0000 -10.615 9.78506 -62.8154
55 1 1 1.0000 -9.40186 7.23844 -61.079704
56 1 2 0.0000 -9.91648 13.0054 -69.979904
57 1 14 0.0000 -10.7063 10.403399 -71.736595
58 1 15 0.0000 -9.328071 8.20652 -72.280304
59 1 15 0.0000 -11.9833 7.62292 -72.0838
60 1 2 0.0000 -5.99018 12.9381 -71.4371
61 1 6 0.0000 -5.0331903 12.2403 -68.446594
62 1 1 1.0000 -4.01543 11.3041 -66.409004
63 1 2 0.0000 -3.2920501 12.3437 -75.2367
64 1 16 0.0000 -3.73624 14.717199 -76.2826
65 1 2 0.0000 -0.88333195 9.83336 -76.1667
66 1 11 0.0000 -0.463372 6.4084797 -76.8043
67 1 6 0.0000 1.6989801 5.81618 -79.221
68 1 2 0.0000 -1.56376 4.21678 -74.8554
69 1 2 0.0000 -4.49435 3.88666 -76.283005
70 1 2 0.0000 -1.96069 1.4342401 -72.8366
71 1 8 0.0000 0.00061928795 2.29671 -70.1465
72 1 12 0.0000 -5.85472 2.67478 -73.8285
73 1 14 0.0000 -6.95781 3.8336701 -71.3862
74 1 15 0.0000 -9.28982 3.85906 -70.2291
75 1 15 0.0000 -7.58603 2.7789803 -68.7833
76 1 12 0.0000 -7.3281503 -1.08696 -72.8406
77 1 2 0.0000 -5.6459303 -2.4172 -70.641
78 1 8 0.0000 -3.75553 -1.06373 -68.3685
79 1 12 0.0000 -5.87566 -5.67021 -70.215996
80 1 10 0.0000 -4.76866 -5.85494 -67.081696
81 1 10 0.0000 -4.0604 -5.70849 -64.4718
82 1 10 0.0000 -6.3684797 -7.1133604 -65.2038
83 1 12 0.0000 -5.2673397 -8.02093 -72.872604
84 1 2 0.0000 -5.08928 -7.4755297 -75.5996
85 1 7 0.0000 -4.2064 -4.01257 -75.2987
86 1 1 1.0000 -4.40243 -1.4163301 -76.9815
87 1 2 0.0000 -3.0469701 -7.84968 -78.8396
88 1 6 0.0000 -0.95524496 -9.14981 -80.8033
89 1 1 1.0000 -0.47942197 -10.588501 -82.966606
90 1 12 0.0000 -1.88576 -4.29375 -80.019
91 1 16 0.0000 -0.00577597 -3.61266 -78.4361
92 1 12 0.0000 -4.6665 -2.3608499 -82.017204
93 1 2 0.0000 -8.41599 -0.838162 -80.257706
94 1 11 0.0000 -8.91441 -3.71986 -77.8286
95 1 11 0.0000 -8.70171 1.78823 -77.8198
96 1 7 0.0000 -10.377899 4.4681 -75.878204
97 1 6 0.0000 -12.8334 3.35467 -74.8693
98 1 12 0.0000 -8.48163 6.76157 -77.563
99 1 2 0.0000 -8.30114 4.84333 -80.6772
100 1 10 0.0000 -7.3546 7.45638 -82.3629
101 1 10 0.0000 -6.2659597 7.32401 -84.6376
102 1 10 0.0000 -6.89054 9.780809 -83.6863
103 1 2 0.0000 -4.96602 2.93416 -81.6663
104 1 16 0.0000 -5.72863 2.39135 -84.2462
105 1 2 0.0000 -2.37861 5.67415 -82.5222
106 1 14 0.0000 -2.9898598 7.9526 -80.5178
107 1 14 0.0000 -5.26785 9.52141 -79.3552
108 1 15 0.0000 -3.3950498 10.689401 -80.838806
109 1 2 0.0000 -1.14219 4.95583 -85.629105
110 1 16 0.0000 -2.39097 6.1636105 -87.5801
111 1 4 0.0000 1.58146 3.73632 -85.242096
112 1 3 -1.0000 2.32785 1.9163699 -88.1427
113 1 7 0.0000 2.48893 2.38663 -82.6174
114 1 12 0.0000 -0.41944897 0.717957 -81.8612
115 1 2 0.0000 -0.633507 1.4305601 -78.7949
116 1 12 0.0000 -0.20786001 -1.28831 -84.201294
117 1 6 0.0000 -2.06068 -0.906294 -86.6857
118 1 1 1.0000 -2.34854 1.21718 -88.2277
119 1 9 0.0000 2.53555 -2.8167999 -83.298195
120 1 2 0.0000 3.81709 -2.63057 -86.6975
121 1 2 0.0000 4.21245 -5.15451 -81.218
122 1 6 0.0000 7.93045 -5.37943 -81.1906
123 1 1 1.0000 10.1222 -6.45055 -78.7824
124 1 2 0.0000 3.55425 -7.07932 -79.7404
125 1 2 0.0000 2.44436 -8.04803 -77.1203
126 1 8 0.0000 3.1880798 -10.9559 -76.5164
127 1 2 0.0000 0.0017884601 -8.63242 -73.525
128 1 16 0.0000 -1.40533 -10.7131 -74.2921
129 1 2 0.0000 -0.77382696 -8.25625 -69.7665
130 1 14 0.0000 -0.993141 -5.36162 -70.4924
131 1 17 0.0000 -0.31286898 -3.0912302 -71.7781
132 1 10 0.0000 0.32277 -5.22078 -73.169395
133 1 10 0.0000 0.771222 -2.7105799 -73.9704
134 1 2 0.0000 0.258416 -8.35279 -66.3654
135 1 6 0.0000 2.60599 -10.576 -67.147
136 1 1 1.0000 4.50007 -11.406799 -65.099304
137 1 4 0.0000 2.9262302 -6.3226004 -65.7679
138 1 3 -1.0000 5.7870297 -7.8015203 -62.698
139 1 4 0.0000 5.3926 -7.3921103 -67.3454
140 1 3 -1.0000 6.49543 -8.12728 -62.9796
141 1 4 0.0000 4.6331997 -6.2872796 -70.6008
142 1 16 0.0000 4.9692 -8.316 -72.2755
143 1 12 0.0000 4.47157 -3.09082 -69.6982
144 1 8 0.0000 4.05399 -0.260302 -69.9169
145 1 9 0.0000 7.66161 -3.2333999 -68.705605
146 1 13 0.0000 10.1029005 -5.5979004 -66.7139
147 1 9 0.0000 8.86388 -3.57198 -71.5467
148 1 3 -1.0000 11.7295 -3.9319599 -74.7632
149 1 9 0.0000 7.7909603 -0.71332604 -72.9691
150 1 14 0.0000 5.1326604 0.992134 -74.2681
151 1 14 0.0000 3.8626099 2.85675 -76.1845
152 1 15 0.0000 2.6539202 1.51034 -74.674904
153 1 12 0.0000 9.35993 1.80997 -71.1874
154 1 8 0.0000 7.13531 3.20894 -69.5611
155 1 12 0.0000 12.989399 1.15791 -72.2856
156 1 3 -1.0000 16.779501 0.174181 -71.293304
157 1 2 0.0000 13.120199 3.66391 -74.2644
158 1 2 0.0000 15.7651 4.84137 -75.1633
159 1 7 0.0000 9.776751 3.3716402 -75.2006
160 1 6 0.0000 7.9987597 5.8052998 -73.8647
161 1 12 0.0000 10.7621 3.2137299 -78.535904
162 1 6 0.0000 12.4769 6.06525 -79.4108
163 1 1 1.0000 11.5057 8.36905 -79.604706
164 1 12 0.0000 11.592199 0.233137 -78.4731
165 1 6 0.0000 14.299601 -0.0406631 -77.3245
166 1 1 1.0000 15.4065 -1.3266801 -75.4806
167 1 12 0.0000 8.64255 -1.08165 -78.1218
168 1 14 0.0000 6.3273196 -3.0123901 -76.9255
169 1 14 0.0000 4.47478 -4.0689 -75.2752
170 1 15 0.0000 6.5942698 -5.41734 -75.8565
171 1 2 0.0000 6.3769 0.606548 -80.0482
172 1 8 0.0000 3.9632897 -1.12483 -79.115204
173 1 7 0.0000 7.24018 -0.012778901 -83.7875
174 1 6 0.0000 9.77438 -1.7574201 -84.273994
175 1 12 0.0000 8.48678 3.8400798 -82.928894
176 1 2 0.0000 6.46879 4.8520603 -80.9931
177 1 16 0.0000 6.55967 5.92799 -78.8878
178 1 2 0.0000 4.56073 7.37401 -83.406296
179 1 6 0.0000 5.99335 5.55785 -85.8485
180 1 1 1.0000 6.3750305 3.5083199 -87.551605
181 1 2 0.0000 2.08922 8.75243 -83.496
182 1 13 0.0000 2.17311 7.94442 -87.6836
183 1 2 0.0000 2.06814 11.4671 -80.5643
184 1 8 0.0000 0.17465901 13.719 -79.9981
185 1 2 0.0000 4.34525 10.9999 -77.3192
186 1 10 0.0000 3.58011 13.9406 -76.2291
187 1 10 0.0000 3.87563 15.2884 -74.0484
188 1 10 0.0000 1.5211201 15.7593 -75.4364
189 1 11 0.0000 7.23528 10.8654995 -76.8598
190 1 2 0.0000 10.6094 10.320999 -74.292305
191 1 2 0.0000 11.992101 7.9117103 -71.3255
192 1 8 0.0000 12.528501 10.249701 -69.5045
193 1 2 0.0000 11.926001 5.1981697 -68.685295
194 1 6 0.0000 14.8629 4.53613 -69.9628
195 1 1 1.0000 17.0753 4.61648 -69.0394
196 1 2 0.0000 15.6414995 1.09339 -65.9076
197 1 6 0.0000 17.6388 2.6356802 -63.6738
198 1 1 1.0000 17.3367 4.6508102 -61.1359
199 1 4 0.0000 14.3989 -1.22819 -63.5352
200 1 6 0.0000 11.5062 -3.87671 -62.7212
201 1 1 1.0000 8.86381 -4.48809 -62.0111
202 1 4 0.0000 12.8913 0.858176 -61.7436
203 1 16 0.0000 12.0665 0.31864798 -59.4585
204 1 4 0.0000 12.1187 3.1533 -63.895702
205 1 3 -1.0000 14.7913 5.92566 -65.039
206 1 4 0.0000 10.5627 1.24511 -65.7033
207 1 7 0.0000 11.6663 -0.732128 -67.7905
208 1 1 1.0000 13.5537 -2.8537602 -69.7223
209 1 7 0.0000 8.740829 -0.101656005 -63.3
210 1 3 -1.0000 7.1524 -1.29024 -59.270203
211 1 7 0.0000 7.15991 2.51023 -62.0966
212 1 3 -1.0000 6.39493 -0.76193804 -59.5802
213 1 7 0.0000 5.8550696 3.29635 -64.8341
214 1 8 0.0000 7.55243 5.83962 -65.5737
215 1 7 0.0000 4.085 0.500618 -65.0711
216 1 8 0.0000 5.2100096 -2.33455 -64.7735
217 1 13 0.0000 2.43994 1.47057 -62.2882
218 1 7 0.0000 0.62598896 3.35204 -63.5598
219 1 14 0.0000 1.21242 5.8476 -64.9752
220 1 14 0.0000 2.3322601 6.15018 -67.2457
221 1 15 0.0000 0.796154 8.07916 -66.1513
222 1 7 0.0000 -0.787442 0.58666503 -65.3552
223 1 8 0.0000 0.35111699 -2.19717 -66.8258
224 1 7 0.0000 -1.66888 -1.03914 -62.6981
225 1 6 0.0000 0.963716 -3.18166 -61.684
226 1 1 1.0000 3.6613 -4.2431397 -60.6709
227 1 9 0.0000 -3.42106 1.37668 -61.3275
228 1 6 0.0000 -2.55757 1.59602 -58.179897
229 1 1 1.0000 -4.08512 1.9704001 -55.7903
230 1 7 0.0000 -5.6508703 1.89434 -63.6797
231 1 9 0.0000 -7.19029 -0.83179104 -63.859
232 1 16 0.0000 -8.0205 -1.3589699 -66.2454
233 1 9 0.0000 -8.13004 -0.78787804 -60.714203
234 1 2 0.0000 -6.76805 -2.06252 -58.0752
235 1 3 -1.0000 -7.57726 2.8828902 -59.9482
236 1 3 -1.0000 -7.9360905 4.71845 -57.4061

Bonds

1 1 1 2
2 1 31 33
3 1 33 34
4 1 34 36
5 1 36 38
6 1 38 42
7 1 42 44
8 1 44 46
9 1 46 48
10 1 48 51
11 1 51 52
12 1 52 53
13 1 53 56
14 1 56 60
15 1 60 63
16 1 63 65
17 1 65 66
18 1 66 68
19 1 68 70
20 1 70 72
21 1 72 76
22 1 76 77
23 1 77 79
24 1 79 83
25 1 83 84
26 1 84 87
27 1 87 90
28 1 90 92
29 1 92 93
30 1 93 95
31 1 95 96
32 1 96 98
33 1 98 99
34 1 99 103
35 1 103 105
36 1 105 109
37 1 121 124
38 1 124 125
39 1 125 127
40 1 127 129
41 1 129 134
42 1 153 155
43 1 155 157
44 1 171 173
45 1 173 175
46 1 175 176
47 1 176 178
48 1 178 181
49 1 181 183
50 1 183 185
51 1 185 189
52 1 189 190
53 1 190 191
54 1 191 193
55 1 193 196
56 2 2 3
57 3 6 7
58 4 8 9
59 5 9 10
60 4 12 13
61 5 13 14
62 4 15 16
63 5 16 17
64 6 20 21
65 3 26 27
66 4 28 29
67 5 29 30
68 6 31 32
69 3 34 35
70 6 36 37
71 2 38 39
72 3 46 47
73 4 48 49
74 5 49 50
75 4 53 54
76 5 54 55
77 2 56 57
78 4 60 61
79 5 61 62
80 7 66 67
81 8 68 69
82 9 70 71
83 2 72 73
84 9 77 78
85 6 79 80
86 4 84 85
87 10 85 86
88 4 87 88
89 5 88 89
90 3 93 94
91 7 96 97
92 6 99 100
93 8 105 106
94 2 111 112
95 8 114 115
96 4 116 117
97 5 117 118
98 8 119 120
99 4 121 122
100 5 122 123
101 11 129 130
102 4 134 135
103 5 135 136
104 3 137 138
105 3 139 140
106 9 143 144
107 12 145 146
108 3 147 148
109 8 149 150
110 9 153 154
111 3 155 156
112 8 157 158
113 7 159 160
114 4 161 162
115 5 162 163
116 4 164 165
117 5 165 166
118 8 167 168
119 7 173 174
120 4 178 179
121 5 179 180
122 12 181 182
123 6 185 186
124 4 193 194
125 5 194 195
126 4 196 197
127 5 197 198
128 4 199 200
129 5 200 201
130 3 204 205
131 4 206 207
132 10 207 208
133 3 209 210
134 2 211 212
135 9 213 214
136 8 218 219
137 9 222 223
138 4 224 225
139 5 225 226
140 4 227 228
141 5 228 229
142 8 233 234
143 3 235 236
144 13 2 4
145 14 4 6
146 14 6 8
147 14 8 11
148 14 11 12
149 14 12 15
150 14 15 18
151 14 18 20
152 14 20 24
153 14 24 26
154 14 26 28
155 13 28 31
156 13 109 111
157 14 111 113
158 14 113 114
159 14 114 116
160 14 116 119
161 13 119 121
162 13 134 137
163 14 137 139
164 14 139 141
165 14 141 143
166 14 143 145
167 14 145 147
168 14 147 149
169 13 149 153
170 13 157 159
171 14 159 161
172 14 161 164
173 14 164 167
174 13 167 171
175 13 196 199
176 14 199 202
177 14 202 204
178 14 204 206
179 14 206 209
180 14 209 211
181 14 211 213
182 14 213 215
183 14 215 217
184 14 217 218
185 14 218 222
186 14 222 224
187 14 224 227
188 14 227 230
189 14 230 231
190 14 231 233
191 13 233 235
192 15 4 5
193 14 18 19
194 16 21 22
195 16 21 23
196 16 22 23
197 15 24 25
198 16 39 40
199 16 39 41
200 16 40 41
201 17 42 43
202 15 44 45
203 16 57 58
204 16 57 59
205 16 58 59
206 17 63 64
207 16 73 74
208 16 73 75
209 16 74 75
210 16 80 81
211 16 80 82
212 16 81 82
213 17 90 91
214 16 100 101
215 16 100 102
216 16 101 102
217 17 103 104
218 16 106 107
219 16 106 108
220 16 107 108
221 17 109 110
222 14 125 126
223 17 127 128
224 16 130 131
225 16 130 132
226 16 131 132
227 16 131 133
228 16 132 133
229 17 141 142
230 16 150 151
231 16 150 152
232 16 151 152
233 16 168 169
234 16 168 170
235 16 169 170
236 14 171 172
237 17 176 177
238 14 183 184
239 16 186 187
240 16 186 188
241 16 187 188
242 14 191 192
243 17 202 203
244 14 215 216
245 16 219 220
246 16 219 221
247 16 220 221
248 17 231 232

Angles

1 1 1 2 4
2 1 2 4 6
3 2 4 6 8
4 2 6 8 11
5 2 8 11 12
6 2 11 12 15
7 2 12 15 18
8 2 15 18 20
9 2 18 20 24
10 2 20 24 26
11 2 24 26 28
12 3 26 28 31
13 3 28 31 33
14 3 31 33 34
15 3 33 34 36
16 3 34 36 38
17 3 36 38 42
18 1 38 42 44
19 1 42 44 46
20 3 44 46 48
21 3 46 48 51
22 3 48 51 52
23 3 51 52 53
24 1 52 53 56
25 1 53 56 60
26 1 56 60 63
27 1 60 63 65
28 4 63 65 66
29 1 65 66 68
30 1 66 68 70
31 3 68 70 72
32 3 70 72 76
33 3 72 76 77
34 3 76 77 79
35 3 77 79 83
36 3 79 83 84
37 3 83 84 87
38 3 84 87 90
39 3 87 90 92
40 3 90 92 93
41 3 92 93 95
42 1 93 95 96
43 3 95 96 98
44 3 96 98 99
45 3 98 99 103
46 1 99 103 105
47 1 103 105 109
48 1 105 109 111
49 1 109 111 113
50 2 111 113 114
51 2 113 114 116
52 2 114 116 119
53 1 116 119 121
54 1 119 121 124
55 1 121 124 125
56 1 124 125 127
57 1 125 127 129
58 1 127 129 134
59 1 129 134 137
60 4 134 137 139
61 2 137 139 141
62 2 139 141 143
63 2 141 143 145
64 2 143 145 147
65 2 145 147 149
66 3 147 149 153
67 3 149 153 155
68 3 153 155 157
69 3 155 157 159
70 5 157 159 161
71 5 159 161 164
72 2 161 164 167
73 4 164 167 171
74 4 167 171 173
75 3 171 173 175
76 3 173 175 176
77 3 175 176 178
78 1 176 178 181
79 1 178 181 183
80 1 181 183 185
81 1 183 185 189
82 1 185 189 190
83 1 189 190 191
84 1 190 191 193
85 1 191 193 196
86 1 193 196 199
87 4 196 199 202
88 2 199 202 204
89 2 202 204 206
90 2 204 206 209
91 2 206 209 211
92 2 209 211 213
93 2 211 213 215
94 2 213 215 217
95 2 215 217 218
96 2 217 218 222
97 2 218 222 224
98 2 222 224 227
99 2 224 227 230
100 2 227 230 231
101 2 230 231 233
102 1 231 233 235
103 6 1 2 3
104 6 2 4 5
105 6 4 6 7
106 6 6 8 9
107 6 11 12 13
108 6 12 15 16
109 6 15 18 19
110 6 18 20 21
111 6 20 24 25
112 6 24 26 27
113 6 26 28 29
114 6 28 31 32
115 6 33 34 35
116 6 34 36 37
117 6 36 38 39
118 6 38 42 43
119 6 42 44 45
120 6 44 46 47
121 6 46 48 49
122 6 52 53 54
123 6 53 56 57
124 6 56 60 61
125 6 60 63 64
126 6 65 66 67
127 6 66 68 69
128 6 68 70 71
129 6 70 72 73
130 6 76 77 78
131 6 77 79 80
132 6 83 84 85
133 6 84 87 88
134 6 87 90 91
135 6 92 93 94
136 6 95 96 97
137 6 98 99 100
138 6 99 103 104
139 6 103 105 106
140 6 105 109 110
141 6 109 111 112
142 6 113 114 115
143 6 114 116 117
144 6 116 119 120
145 6 119 121 122
146 6 124 125 126
147 6 125 127 128
148 6 127 129 130
149 6 129 134 135
150 6 134 137 138
151 6 137 139 140
152 6 139 141 142
153 6 141 143 144
154 6 143 145 146
155 6 145 147 148
156 6 147 149 150
157 6 149 153 154
158 6 153 155 156
159 6 155 157 158
160 6 157 159 160
161 6 159 161 162
162 6 161 164 165
163 6 164 167 168
164 6 167 171 172
165 6 171 173 174
166 6 175 176 177
167 6 176 178 179
168 6 178 181 182
169 6 181 183 184
170 6 183 185 186
171 6 190 191 192
172 6 191 193 194
173 6 193 196 197
174 6 196 199 200
175 6 199 202 203
176 6 202 204 205
177 6 204 206 207
178 6 206 209 210
179 6 209 211 212
180 6 211 213 214
181 6 213 215 216
182 6 217 218 219
183 6 218 222 223
184 6 222 224 225
185 6 224 227 228
186 6 230 231 232
187 6 231 233 234
188 6 233 235 236
189 7 8 9 10
190 7 12 13 14
191 7 15 16 17
192 8 20 21 22
193 8 20 21 23
194 7 28 29 30
195 8 38 39 40
196 8 38 39 41
197 7 48 49 50
198 7 53 54 55
199 8 56 57 58
200 8 56 57 59
201 7 60 61 62
202 8 72 73 74
203 8 72 73 75
204 8 79 80 81
205 8 79 80 82
206 7 84 85 86
207 7 87 88 89
208 8 99 100 101
209 8 99 100 102
210 8 105 106 107
211 8 105 106 108
212 7 116 117 118
213 7 121 122 123
214 9 129 130 131
215 10 129 130 132
216 7 134 135 136
217 8 149 150 151
218 8 149 150 152
219 7 161 162 163
220 7 164 165 166
221 8 167 168 169
222 8 167 168 170
223 7 178 179 180
224 8 185 186 187
225 8 185 186 188
226 7 193 194 195
227 7 196 197 198
228 7 199 200 201
229 7 206 207 208
230 8 218 219 220
231 8 218 219 221
232 7 224 225 226
233 7 227 228 229

Dihedrals

1 1 4 6 8 11
2 1 6 8 11 12
3 1 8 11 12 15
4 1 11 12 15 18
5 1 12 15 18 20
6 1 15 18 20 24
7 1 18 20 24 26
8 1 20 24 26 28
9 1 111 113 114 116
10 1 113 114 116 119
11 1 137 139 141 143
12 1 139 141 143 145
13 1 141 143 145 147
14 1 143 145 147 149
15 1 159 161 164 167
16 1 199 202 204 206
17 1 202 204 206 209
18 1 204 206 209 211
19 1 206 209 211 213
20 1 209 211 213 215
21 1 211 213 215 217
22 1 213 215 217 218
23 1 215 217 218 222
24 1 217 218 222 224
25 1 218 222 224 227
26 1 222 224 227 230
27 1 224 227 230 231
28 1 227 230 231 233

Impropers

1 1 20 22 23 21
2 1 38 40 41 39
3 1 56 58 59 57
4 1 72 74 75 73
5 1 79 81 82 80
6 1 99 101 102 100
7 1 105 107 108 106
8 1 129 131 132 130
9 2 130 131 133 132
10 1 149 151 152 150
11 1 167 169 170 168
12 1 185 187 188 186
13 1 218 220 221 219

