comment

236 atoms
248 bonds
233 angles
28 dihedrals
13 impropers

17 atom types
17 bond types
10 angle types
1 dihedral types
2 improper types

-40.5 40.5 xlo xhi
-40.5 40.5 ylo yhi
-190.0 190.0 zlo zhi

Masses

1 72.0
2 72.0
3 72.0
4 72.0
5 72.0
6 72.0
7 72.0
8 72.0
9 72.0
10 45.0
11 72.0
12 72.0
13 72.0
14 45.0
15 45.0
16 72.0
17 45.0

PairIJ Coeffs

1 1 1.19503 4.699999999999999
1 2 1.3384336 4.699999999999999
1 3 1.3384336 4.699999999999999
1 4 0.956024 4.699999999999999
1 5 0.478012 4.699999999999999
1 6 0.5497137999999999 4.699999999999999
1 7 0.836521 4.699999999999999
1 8 0.478012 4.699999999999999
1 9 1.19503 4.699999999999999
1 10 0.7409186 4.699999999999999
1 11 1.3384336 4.699999999999999
1 12 1.19503 4.699999999999999
1 13 0.7409186 4.699999999999999
1 14 0.6453162 4.699999999999999
1 15 1.19503 4.699999999999999
1 16 1.19503 4.699999999999999
1 17 0.956024 4.699999999999999
2 2 1.3384336 4.699999999999999
2 3 1.3384336 4.699999999999999
2 4 1.19503 4.699999999999999
2 5 0.5497137999999999 4.699999999999999
2 6 0.6453162 4.699999999999999
2 7 0.836521 4.699999999999999
2 8 0.478012 4.699999999999999
2 9 1.19503 4.699999999999999
2 10 0.7409186 4.699999999999999
2 11 1.3384336 4.699999999999999
2 12 1.19503 4.699999999999999
2 13 0.7409186 4.699999999999999
2 14 0.6453162 4.699999999999999
2 15 1.3384336 4.699999999999999
2 16 1.3384336 4.699999999999999
2 17 1.19503 4.699999999999999
3 3 1.19503 4.699999999999999
3 4 1.19503 4.699999999999999
3 5 0.478012 4.699999999999999
3 6 0.5497137999999999 4.699999999999999
3 7 0.836521 4.699999999999999
3 8 0.478012 4.699999999999999
3 9 0.956024 4.699999999999999
3 10 0.7409186 4.699999999999999
3 11 1.3384336 4.699999999999999
3 12 1.19503 4.699999999999999
3 13 0.7409186 4.699999999999999
3 14 0.6453162 4.699999999999999
3 15 1.19503 4.699999999999999
3 16 1.19503 4.699999999999999
3 17 1.19503 4.699999999999999
4 4 0.956024 4.699999999999999
4 5 0.6453162 4.699999999999999
4 6 0.6453162 4.699999999999999
4 7 0.836521 4.699999999999999
4 8 0.6453162 4.699999999999999
4 9 1.075527 4.699999999999999
4 10 0.836521 4.699999999999999
4 11 0.956024 4.699999999999999
4 12 1.075527 4.699999999999999
4 13 0.836521 4.699999999999999
4 14 0.7409186 4.699999999999999
4 15 1.075527 4.699999999999999
4 16 1.075527 4.699999999999999
4 17 0.956024 4.699999999999999
5 5 0.836521 4.699999999999999
5 6 0.836521 4.699999999999999
5 7 0.7409186 4.699999999999999
5 8 0.836521 4.699999999999999
5 9 0.6453162 4.699999999999999
5 10 0.7409186 4.699999999999999
5 11 0.5497137999999999 4.699999999999999
5 12 0.6453162 4.699999999999999
5 13 0.7409186 4.699999999999999
5 14 0.7409186 4.699999999999999
5 15 0.7409186 4.699999999999999
5 16 0.7409186 4.699999999999999
5 17 0.6453162 4.699999999999999
6 6 0.836521 4.699999999999999
6 7 0.836521 4.699999999999999
6 8 0.836521 4.699999999999999
6 9 0.6453162 4.699999999999999
6 10 0.836521 4.699999999999999
6 11 0.6453162 4.699999999999999
6 12 0.6453162 4.699999999999999
6 13 0.836521 4.699999999999999
6 14 0.836521 4.699999999999999
6 15 0.836521 4.699999999999999
6 16 0.836521 4.699999999999999
6 17 0.6453162 4.699999999999999
7 7 0.836521 4.699999999999999
7 8 0.6453162 4.699999999999999
7 9 0.836521 4.699999999999999
7 10 0.836521 4.699999999999999
7 11 0.836521 4.699999999999999
7 12 0.836521 4.699999999999999
7 13 0.836521 4.699999999999999
7 14 0.836521 4.699999999999999
7 15 0.956024 4.699999999999999
7 16 0.956024 4.699999999999999
7 17 0.836521 4.699999999999999
8 8 0.836521 4.699999999999999
8 9 0.6453162 4.699999999999999
8 10 0.7409186 4.699999999999999
8 11 0.478012 4.699999999999999
8 12 0.6453162 4.699999999999999
8 13 0.7409186 4.699999999999999
8 14 0.7409186 4.699999999999999
8 15 0.6453162 4.699999999999999
8 16 0.6453162 4.699999999999999
8 17 0.6453162 4.699999999999999
9 9 0.956024 4.699999999999999
9 10 0.836521 4.699999999999999
9 11 0.956024 4.699999999999999
9 12 1.075527 4.699999999999999
9 13 0.836521 4.699999999999999
9 14 0.7409186 4.699999999999999
9 15 1.075527 4.699999999999999
9 16 1.075527 4.699999999999999
9 17 1.075527 4.699999999999999
10 10 0.62739075 4.3
10 11 0.7409186 4.699999999999999
10 12 0.836521 4.699999999999999
10 13 0.836521 4.699999999999999
10 14 0.62739075 4.3
10 15 0.62739075 4.3
10 16 0.836521 4.699999999999999
10 17 0.62739075 4.3
11 11 1.19503 4.699999999999999
11 12 0.956024 4.699999999999999
11 13 0.7409186 4.699999999999999
11 14 0.6453162 4.699999999999999
11 15 1.075527 4.699999999999999
11 16 1.075527 4.699999999999999
11 17 0.956024 4.699999999999999
12 12 1.075527 4.699999999999999
12 13 0.836521 4.699999999999999
12 14 0.7409186 4.699999999999999
12 15 1.075527 4.699999999999999
12 16 1.075527 4.699999999999999
12 17 1.075527 4.699999999999999
13 13 0.836521 4.699999999999999
13 14 0.836521 4.699999999999999
13 15 0.836521 4.699999999999999
13 16 0.836521 4.699999999999999
13 17 0.836521 4.699999999999999
14 14 0.62739075 4.3
14 15 0.62739075 4.3
14 16 0.836521 4.699999999999999
14 17 0.5556889500000001 4.3
15 15 0.80664525 4.3
15 16 1.075527 4.699999999999999
15 17 0.80664525 4.3
16 16 1.075527 4.699999999999999
16 17 1.075527 4.699999999999999
17 17 0.7170179999999999 4.3

Bond Coeffs

1 1.4937875 3.5
2 8.962725 3.2
3 5.97515 4.0
4 5.97515 3.3000000000000003
5 5.97515 2.8000000000000003
6 8.962725 3.1
7 8.962725 3.0
8 5.97515 3.2
9 8.962725 3.3000000000000003
10 5.97515 3.4000000000000004
11 5.97515 3.0
12 2.987575 4.0
13 11.9503 3.3000000000000003
14 11.9503 3.1
15 11.9503 2.6500000000000004
16 11.9503 2.7
17 11.9503 2.6

Angle Coeffs

1 2.39006 127
2 83.6521 96
3 2.39006 100
4 2.39006 130
5 11.9503 98
6 2.987575 100
7 2.987575 180
8 5.97515 150
9 5.97515 210
10 5.97515 90

Dihedral Coeffs

1 95.6024 1 -120 0

Improper Coeffs

1 5.97515 0
2 23.9006 0

Atoms

1 1 1 1.0000 1.2549999 -0.027 -48.818
2 1 2 0.0000 0.125083 0.13068101 -50.9292
3 1 3 -1.0000 -1.3129901 -0.724839 -53.1432
4 1 4 0.0000 1.93572 2.14347 -54.229103
5 1 5 0.0000 2.6539202 0.60037696 -56.072304
6 1 4 0.0000 1.66319 5.51781 -54.9169
7 1 3 -1.0000 -1.77764 6.0131 -55.928303
8 1 4 0.0000 4.47677 6.1285696 -56.546898
9 1 6 0.0000 7.12897 4.1339498 -56.039
10 1 1 1.0000 7.8447905 1.94057 -56.6892
11 1 4 0.0000 3.95834 4.91966 -59.375
12 1 7 0.0000 1.44084 7.11998 -60.6356
13 1 6 0.0000 -1.81336 6.60905 -61.0316
14 1 1 1.0000 -4.13414 5.75526 -60.155502
15 1 7 0.0000 3.37401 9.59836 -60.0153
16 1 6 0.0000 2.35048 11.0359 -57.3348
17 1 1 1.0000 0.607322 10.2343 -55.3931
18 1 7 0.0000 5.99231 9.2771 -62.0403
19 1 8 0.0000 8.4175005 7.9479303 -60.8128
20 1 9 0.0000 4.73664 9.86026 -64.703995
21 1 10 0.0000 5.58245 9.83247 -67.642105
22 1 10 0.0000 5.21971 9.64153 -70.471405
23 1 10 0.0000 7.64398 9.0651 -69.3731
24 1 9 0.0000 3.55111 12.7803 -64.0179
25 1 5 0.0000 1.61541 14.4025 -64.1599
26 1 9 0.0000 6.5095596 14.0854 -63.257797
27 1 11 0.0000 5.086 17.320301 -65.13
28 1 9 0.0000 7.96332 13.5445 -65.8806
29 1 6 0.0000 9.78409 11.1661005 -65.4733
30 1 1 1.0000 11.2409 8.661011 -65.1427
31 1 12 0.0000 6.4460897 14.131201 -68.9362
32 1 13 0.0000 8.82896 14.088699 -71.283104
33 1 7 0.0000 4.22287 14.628201 -69.264305
34 1 12 0.0000 0.99964404 12.494101 -68.5092
35 1 11 0.0000 -0.957291 15.9069 -68.6171
36 1 12 0.0000 0.0342333 12.069401 -71.6086
37 1 13 0.0000 -1.24876 15.104 -71.9008
38 1 2 0.0000 -0.932732 8.45982 -71.745804
39 1 14 0.0000 2.06671 7.10441 -72.7001
40 1 15 0.0000 3.98986 5.3021197 -72.5652
41 1 15 0.0000 3.9134402 7.5985804 -74.052704
42 1 2 0.0000 -4.35339 8.0425205 -71.5136
43 1 16 0.0000 -5.37754 8.10416 -73.9379
44 1 2 0.0000 -4.95807 7.25247 -68.5448
45 1 5 0.0000 -3.22292 5.52074 -67.558395
46 1 2 0.0000 -7.42902 6.39463 -65.7156
47 1 3 -1.0000 -5.97323 9.4693 -63.1771
48 1 12 0.0000 -11.2743 4.03618 -64.5746
49 1 6 0.0000 -12.0802 2.55671 -61.502
50 1 1 1.0000 -11.705299 1.7548101 -58.562298
51 1 12 0.0000 -12.6758 5.3612204 -67.7203
52 1 2 0.0000 -9.5462 7.41473 -67.0999
53 1 2 0.0000 -10.461201 10.4126 -66.220695
54 1 6 0.0000 -11.0845995 9.3474 -62.9419
55 1 1 1.0000 -9.44166 7.3264003 -61.0448
56 1 2 0.0000 -8.72828 12.058901 -69.9877
57 1 14 0.0000 -9.65683 9.62457 -71.6405
58 1 15 0.0000 -10.134899 7.09825 -72.7025
59 1 15 0.0000 -12.1026 8.93997 -71.914604
60 1 2 0.0000 -5.62442 12.9897 -71.6502
61 1 6 0.0000 -4.15492 11.9244 -68.7328
62 1 1 1.0000 -3.38063 11.6075 -66.0944
63 1 2 0.0000 -4.04852 12.508201 -75.070404
64 1 16 0.0000 -3.08492 14.938801 -76.577
65 1 2 0.0000 -0.471772 10.5761 -76.5511
66 1 11 0.0000 0.461478 7.9408197 -77.1268
67 1 6 0.0000 1.65571 6.28668 -79.1681
68 1 2 0.0000 -1.5585301 4.8955603 -75.6378
69 1 2 0.0000 -3.67847 4.60756 -77.2275
70 1 2 0.0000 -1.92443 3.6298 -72.5837
71 1 8 0.0000 0.0804798 2.5279999 -70.224396
72 1 12 0.0000 -5.85 2.46438 -74.247696
73 1 14 0.0000 -7.62567 3.70466 -71.957596
74 1 15 0.0000 -9.56481 3.13436 -70.1848
75 1 15 0.0000 -7.25302 3.13029 -69.4015
76 1 12 0.0000 -7.37163 -0.83948004 -73.9716
77 1 2 0.0000 -5.42444 -1.9357901 -71.1504
78 1 8 0.0000 -3.96438 -0.78034806 -68.5189
79 1 12 0.0000 -6.18093 -5.62762 -70.3538
80 1 10 0.0000 -4.98026 -5.8364897 -67.3525
81 1 10 0.0000 -2.65288 -5.94553 -65.593
82 1 10 0.0000 -5.10361 -7.1382303 -64.8226
83 1 12 0.0000 -5.63859 -8.025371 -72.858
84 1 2 0.0000 -5.3521595 -6.92548 -76.3259
85 1 7 0.0000 -4.07699 -4.2722898 -75.4309
86 1 1 1.0000 -3.08409 -1.35324 -75.913704
87 1 2 0.0000 -3.6314101 -7.4236703 -79.315704
88 1 6 0.0000 -0.980762 -9.24763 -79.8328
89 1 1 1.0000 0.720452 -8.90849 -82.2097
90 1 12 0.0000 -2.17181 -4.48502 -79.8037
91 1 16 0.0000 -0.0762532 -3.6624699 -78.873604
92 1 12 0.0000 -4.96538 -3.34724 -82.234406
93 1 2 0.0000 -6.1799803 -1.03557 -79.4186
94 1 11 0.0000 -8.74843 -4.01365 -78.2753
95 1 11 0.0000 -7.95731 1.4321101 -79.675896
96 1 7 0.0000 -9.99122 3.4706302 -77.0021
97 1 6 0.0000 -11.7583 2.0360699 -75.1165
98 1 12 0.0000 -8.25536 6.12368 -77.56
99 1 2 0.0000 -7.19891 5.81135 -80.79369
100 1 10 0.0000 -7.27968 8.09031 -83.119
101 1 10 0.0000 -6.0221796 8.17165 -85.3986
102 1 10 0.0000 -7.09647 10.532499 -84.0989
103 1 2 0.0000 -4.73597 3.65136 -82.369
104 1 16 0.0000 -5.43948 2.0230799 -84.115
105 1 2 0.0000 -1.9483199 5.53819 -82.6149
106 1 14 0.0000 -3.02425 8.17285 -81.0159
107 1 14 0.0000 -4.68456 9.7838 -79.2529
108 1 15 0.0000 -3.1091099 10.760799 -81.161804
109 1 2 0.0000 -0.643329 4.7628098 -85.896904
110 1 16 0.0000 -1.79976 6.13658 -88.0796
111 1 4 0.0000 1.8064301 2.50088 -85.938194
112 1 3 -1.0000 2.23016 1.70239 -88.8235
113 1 7 0.0000 2.42512 2.06728 -82.774895
114 1 12 0.0000 -0.494329 0.583945 -82.0456
115 1 2 0.0000 -0.81624097 1.0819199 -79.2616
116 1 12 0.0000 -0.150266 -2.18213 -83.9554
117 1 6 0.0000 -2.3776898 -1.17213 -86.433
118 1 1 1.0000 -2.1165 0.216958 -89.1736
119 1 9 0.0000 2.6890502 -3.2754202 -83.0553
120 1 2 0.0000 4.2149 -4.01171 -86.1094
121 1 2 0.0000 5.04093 -5.0996203 -81.1491
122 1 6 0.0000 8.4392395 -4.60168 -80.9718
123 1 1 1.0000 10.6988 -5.17043 -78.8598
124 1 2 0.0000 3.96258 -7.0857697 -79.2492
125 1 2 0.0000 2.3044798 -7.85183 -76.8636
126 1 8 0.0000 2.66154 -10.6478 -76.3396
127 1 2 0.0000 -0.605572 -7.94145 -74.0137
128 1 16 0.0000 -1.61192 -9.91701 -75.0833
129 1 2 0.0000 -1.26697 -8.242081 -69.9254
130 1 14 0.0000 -1.18854 -4.94968 -70.2306
131 1 17 0.0000 -0.15722999 -2.68159 -71.4817
132 1 10 0.0000 0.288021 -4.92138 -72.588104
133 1 10 0.0000 1.4752799 -2.6467001 -73.6248
134 1 2 0.0000 0.333484 -9.33821 -67.6121
135 1 6 0.0000 2.94868 -11.6730995 -67.6057
136 1 1 1.0000 4.5229 -11.9169 -64.9954
137 1 4 0.0000 2.4907 -7.01884 -66.2152
138 1 3 -1.0000 5.33786 -7.87397 -63.0117
139 1 4 0.0000 5.0981402 -7.7683697 -67.7714
140 1 3 -1.0000 6.01975 -7.77072 -63.4293
141 1 4 0.0000 4.60524 -6.17433 -70.5609
142 1 16 0.0000 4.19939 -7.8527403 -72.4513
143 1 12 0.0000 4.8309 -3.2003 -69.383
144 1 8 0.0000 3.8726301 -0.286663 -69.7274
145 1 9 0.0000 7.9057302 -3.40099 -68.730896
146 1 13 0.0000 9.68797 -5.81812 -66.4307
147 1 9 0.0000 8.86522 -3.68389 -71.5972
148 1 3 -1.0000 11.925401 -4.04528 -74.3995
149 1 9 0.0000 7.7512503 -0.552454 -72.5417
150 1 14 0.0000 5.04121 0.943247 -74.607704
151 1 14 0.0000 3.9034 2.9379902 -76.2648
152 1 15 0.0000 2.4853 1.40744 -74.3788
153 1 12 0.0000 9.52822 1.4463501 -71.5286
154 1 8 0.0000 7.31085 3.45902 -69.9195
155 1 12 0.0000 12.5287 0.99168 -72.3775
156 1 3 -1.0000 15.8372 0.127471 -70.864
157 1 2 0.0000 13.0379 3.9593 -74.0762
158 1 2 0.0000 15.2695 4.84927 -73.8553
159 1 7 0.0000 10.1754 3.32567 -75.745605
160 1 6 0.0000 8.24114 5.1028104 -74.441696
161 1 12 0.0000 11.4738 3.02209 -78.6006
162 1 6 0.0000 13.2577 5.9711404 -78.043396
163 1 1 1.0000 12.228201 8.47339 -77.9571
164 1 12 0.0000 11.437201 -0.417361 -78.1201
165 1 6 0.0000 14.779 -0.336206 -77.8578
166 1 1 1.0000 15.9376 -1.42277 -75.1788
167 1 12 0.0000 8.39116 -0.55466 -77.8014
168 1 14 0.0000 7.42274 -3.0044298 -76.374
169 1 14 0.0000 4.9998097 -3.8674798 -75.763794
170 1 15 0.0000 7.0348196 -5.61625 -75.435
171 1 2 0.0000 6.35875 0.521747 -80.0757
172 1 8 0.0000 3.69127 -0.734301 -79.2811
173 1 7 0.0000 6.81123 0.17561199 -83.535
174 1 6 0.0000 8.610371 -1.58234 -85.1004
175 1 12 0.0000 8.69954 3.0315301 -83.120804
176 1 2 0.0000 6.21283 4.31847 -80.5838
177 1 16 0.0000 6.6121397 6.05107 -78.7085
178 1 2 0.0000 4.36244 6.39581 -83.477295
179 1 6 0.0000 6.23067 5.40707 -85.729
180 1 1 1.0000 6.1815205 3.26335 -87.6308
181 1 2 0.0000 3.19444 8.50101 -83.6203
182 1 13 0.0000 2.20221 8.86571 -87.1291
183 1 2 0.0000 2.95903 10.681 -80.6083
184 1 8 0.0000 1.5978099 13.3495 -81.1732
185 1 2 0.0000 4.37108 10.774699 -77.7129
186 1 10 0.0000 3.35439 13.487901 -76.9662
187 1 10 0.0000 4.08487 15.945999 -75.300896
188 1 10 0.0000 1.8171 15.391701 -75.74
189 1 11 0.0000 7.59816 10.6057 -76.1291
190 1 2 0.0000 10.075701 9.73881 -74.0694
191 1 2 0.0000 11.4777 7.72255 -71.0814
192 1 8 0.0000 12.67 10.0638 -69.792496
193 1 2 0.0000 11.704101 4.76286 -68.5752
194 1 6 0.0000 14.6562 5.07006 -69.022
195 1 1 1.0000 16.9545 4.1254196 -68.723305
196 1 2 0.0000 15.8282995 1.08405 -65.916504
197 1 6 0.0000 18.1169 2.43978 -63.643997
198 1 1 1.0000 17.236101 3.8719 -61.374798
199 1 4 0.0000 14.6327 -1.0248901 -63.5131
200 1 6 0.0000 11.8675995 -4.00005 -62.3418
201 1 1 1.0000 9.34241 -5.0949 -61.897602
202 1 4 0.0000 13.0242 0.779675 -61.7499
203 1 16 0.0000 12.2493 0.157433 -59.3284
204 1 4 0.0000 12.1698 3.21149 -63.9337
205 1 3 -1.0000 15.029699 6.05478 -64.5684
206 1 4 0.0000 10.413099 0.993286 -65.6865
207 1 7 0.0000 12.122601 -1.14755 -67.8085
208 1 1 1.0000 13.0972 -3.44584 -69.9663
209 1 7 0.0000 8.9041195 -0.00581715 -63.265
210 1 3 -1.0000 7.32872 -1.7622 -59.7051
211 1 7 0.0000 7.1342497 2.5087402 -62.2688
212 1 3 -1.0000 6.00462 -0.402691 -59.9407
213 1 7 0.0000 5.7397504 2.78265 -65.3249
214 1 8 0.0000 7.1022897 5.73412 -65.6866
215 1 7 0.0000 4.34801 -0.123229 -65.078804
216 1 8 0.0000 5.04458 -2.9113503 -64.8974
217 1 13 0.0000 2.47115 0.766545 -62.3491
218 1 7 0.0000 0.683854 2.95903 -63.5516
219 1 14 0.0000 1.65063 5.45618 -65.5255
220 1 14 0.0000 2.31661 6.68626 -68.0635
221 1 15 0.0000 0.67521995 8.0825 -66.2461
222 1 7 0.0000 -0.665081 0.79450196 -65.562805
223 1 8 0.0000 0.446622 -2.17087 -66.8345
224 1 7 0.0000 -1.7221301 -0.984488 -62.9826
225 1 6 0.0000 0.509573 -3.53591 -62.0009
226 1 1 1.0000 3.47321 -4.10882 -60.8888
227 1 9 0.0000 -3.1826801 1.5775099 -61.7197
228 1 6 0.0000 -2.86667 1.8018601 -58.1789
229 1 1 1.0000 -4.18134 2.10651 -55.811802
230 1 7 0.0000 -5.39736 2.20162 -64.2224
231 1 9 0.0000 -6.7691803 -0.469356 -64.1684
232 1 16 0.0000 -8.47892 -1.34157 -66.237
233 1 9 0.0000 -7.8091 -0.520683 -61.157497
234 1 2 0.0000 -5.988 -2.5045 -59.3697
235 1 3 -1.0000 -7.70468 2.7722201 -60.486202
236 1 3 -1.0000 -7.8690395 4.53942 -57.683903

Bonds

1 1 1 2
2 1 31 33
3 1 33 34
4 1 34 36
5 1 36 38
6 1 38 42
7 1 42 44
8 1 44 46
9 1 46 48
10 1 48 51
11 1 51 52
12 1 52 53
13 1 53 56
14 1 56 60
15 1 60 63
16 1 63 65
17 1 65 66
18 1 66 68
19 1 68 70
20 1 70 72
21 1 72 76
22 1 76 77
23 1 77 79
24 1 79 83
25 1 83 84
26 1 84 87
27 1 87 90
28 1 90 92
29 1 92 93
30 1 93 95
31 1 95 96
32 1 96 98
33 1 98 99
34 1 99 103
35 1 103 105
36 1 105 109
37 1 121 124
38 1 124 125
39 1 125 127
40 1 127 129
41 1 129 134
42 1 153 155
43 1 155 157
44 1 171 173
45 1 173 175
46 1 175 176
47 1 176 178
48 1 178 181
49 1 181 183
50 1 183 185
51 1 185 189
52 1 189 190
53 1 190 191
54 1 191 193
55 1 193 196
56 2 2 3
57 3 6 7
58 4 8 9
59 5 9 10
60 4 12 13
61 5 13 14
62 4 15 16
63 5 16 17
64 6 20 21
65 3 26 27
66 4 28 29
67 5 29 30
68 6 31 32
69 3 34 35
70 6 36 37
71 2 38 39
72 3 46 47
73 4 48 49
74 5 49 50
75 4 53 54
76 5 54 55
77 2 56 57
78 4 60 61
79 5 61 62
80 7 66 67
81 8 68 69
82 9 70 71
83 2 72 73
84 9 77 78
85 6 79 80
86 4 84 85
87 10 85 86
88 4 87 88
89 5 88 89
90 3 93 94
91 7 96 97
92 6 99 100
93 8 105 106
94 2 111 112
95 8 114 115
96 4 116 117
97 5 117 118
98 8 119 120
99 4 121 122
100 5 122 123
101 11 129 130
102 4 134 135
103 5 135 136
104 3 137 138
105 3 139 140
106 9 143 144
107 12 145 146
108 3 147 148
109 8 149 150
110 9 153 154
111 3 155 156
112 8 157 158
113 7 159 160
114 4 161 162
115 5 162 163
116 4 164 165
117 5 165 166
118 8 167 168
119 7 173 174
120 4 178 179
121 5 179 180
122 12 181 182
123 6 185 186
124 4 193 194
125 5 194 195
126 4 196 197
127 5 197 198
128 4 199 200
129 5 200 201
130 3 204 205
131 4 206 207
132 10 207 208
133 3 209 210
134 2 211 212
135 9 213 214
136 8 218 219
137 9 222 223
138 4 224 225
139 5 225 226
140 4 227 228
141 5 228 229
142 8 233 234
143 3 235 236
144 13 2 4
145 14 4 6
146 14 6 8
147 14 8 11
148 14 11 12
149 14 12 15
150 14 15 18
151 14 18 20
152 14 20 24
153 14 24 26
154 14 26 28
155 13 28 31
156 13 109 111
157 14 111 113
158 14 113 114
159 14 114 116
160 14 116 119
161 13 119 121
162 13 134 137
163 14 137 139
164 14 139 141
165 14 141 143
166 14 143 145
167 14 145 147
168 14 147 149
169 13 149 153
170 13 157 159
171 14 159 161
172 14 161 164
173 14 164 167
174 13 167 171
175 13 196 199
176 14 199 202
177 14 202 204
178 14 204 206
179 14 206 209
180 14 209 211
181 14 211 213
182 14 213 215
183 14 215 217
184 14 217 218
185 14 218 222
186 14 222 224
187 14 224 227
188 14 227 230
189 14 230 231
190 14 231 233
191 13 233 235
192 15 4 5
193 14 18 19
194 16 21 22
195 16 21 23
196 16 22 23
197 15 24 25
198 16 39 40
199 16 39 41
200 16 40 41
201 17 42 43
202 15 44 45
203 16 57 58
204 16 57 59
205 16 58 59
206 17 63 64
207 16 73 74
208 16 73 75
209 16 74 75
210 16 80 81
211 16 80 82
212 16 81 82
213 17 90 91
214 16 100 101
215 16 100 102
216 16 101 102
217 17 103 104
218 16 106 107
219 16 106 108
220 16 107 108
221 17 109 110
222 14 125 126
223 17 127 128
224 16 130 131
225 16 130 132
226 16 131 132
227 16 131 133
228 16 132 133
229 17 141 142
230 16 150 151
231 16 150 152
232 16 151 152
233 16 168 169
234 16 168 170
235 16 169 170
236 14 171 172
237 17 176 177
238 14 183 184
239 16 186 187
240 16 186 188
241 16 187 188
242 14 191 192
243 17 202 203
244 14 215 216
245 16 219 220
246 16 219 221
247 16 220 221
248 17 231 232

Angles

1 1 1 2 4
2 1 2 4 6
3 2 4 6 8
4 2 6 8 11
5 2 8 11 12
6 2 11 12 15
7 2 12 15 18
8 2 15 18 20
9 2 18 20 24
10 2 20 24 26
11 2 24 26 28
12 3 26 28 31
13 3 28 31 33
14 3 31 33 34
15 3 33 34 36
16 3 34 36 38
17 3 36 38 42
18 1 38 42 44
19 1 42 44 46
20 3 44 46 48
21 3 46 48 51
22 3 48 51 52
23 3 51 52 53
24 1 52 53 56
25 1 53 56 60
26 1 56 60 63
27 1 60 63 65
28 4 63 65 66
29 1 65 66 68
30 1 66 68 70
31 3 68 70 72
32 3 70 72 76
33 3 72 76 77
34 3 76 77 79
35 3 77 79 83
36 3 79 83 84
37 3 83 84 87
38 3 84 87 90
39 3 87 90 92
40 3 90 92 93
41 3 92 93 95
42 1 93 95 96
43 3 95 96 98
44 3 96 98 99
45 3 98 99 103
46 1 99 103 105
47 1 103 105 109
48 1 105 109 111
49 1 109 111 113
50 2 111 113 114
51 2 113 114 116
52 2 114 116 119
53 1 116 119 121
54 1 119 121 124
55 1 121 124 125
56 1 124 125 127
57 1 125 127 129
58 1 127 129 134
59 1 129 134 137
60 4 134 137 139
61 2 137 139 141
62 2 139 141 143
63 2 141 143 145
64 2 143 145 147
65 2 145 147 149
66 3 147 149 153
67 3 149 153 155
68 3 153 155 157
69 3 155 157 159
70 5 157 159 161
71 5 159 161 164
72 2 161 164 167
73 4 164 167 171
74 4 167 171 173
75 3 171 173 175
76 3 173 175 176
77 3 175 176 178
78 1 176 178 181
79 1 178 181 183
80 1 181 183 185
81 1 183 185 189
82 1 185 189 190
83 1 189 190 191
84 1 190 191 193
85 1 191 193 196
86 1 193 196 199
87 4 196 199 202
88 2 199 202 204
89 2 202 204 206
90 2 204 206 209
91 2 206 209 211
92 2 209 211 213
93 2 211 213 215
94 2 213 215 217
95 2 215 217 218
96 2 217 218 222
97 2 218 222 224
98 2 222 224 227
99 2 224 227 230
100 2 227 230 231
101 2 230 231 233
102 1 231 233 235
103 6 1 2 3
104 6 2 4 5
105 6 4 6 7
106 6 6 8 9
107 6 11 12 13
108 6 12 15 16
109 6 15 18 19
110 6 18 20 21
111 6 20 24 25
112 6 24 26 27
113 6 26 28 29
114 6 28 31 32
115 6 33 34 35
116 6 34 36 37
117 6 36 38 39
118 6 38 42 43
119 6 42 44 45
120 6 44 46 47
121 6 46 48 49
122 6 52 53 54
123 6 53 56 57
124 6 56 60 61
125 6 60 63 64
126 6 65 66 67
127 6 66 68 69
128 6 68 70 71
129 6 70 72 73
130 6 76 77 78
131 6 77 79 80
132 6 83 84 85
133 6 84 87 88
134 6 87 90 91
135 6 92 93 94
136 6 95 96 97
137 6 98 99 100
138 6 99 103 104
139 6 103 105 106
140 6 105 109 110
141 6 109 111 112
142 6 113 114 115
143 6 114 116 117
144 6 116 119 120
145 6 119 121 122
146 6 124 125 126
147 6 125 127 128
148 6 127 129 130
149 6 129 134 135
150 6 134 137 138
151 6 137 139 140
152 6 139 141 142
153 6 141 143 144
154 6 143 145 146
155 6 145 147 148
156 6 147 149 150
157 6 149 153 154
158 6 153 155 156
159 6 155 157 158
160 6 157 159 160
161 6 159 161 162
162 6 161 164 165
163 6 164 167 168
164 6 167 171 172
165 6 171 173 174
166 6 175 176 177
167 6 176 178 179
168 6 178 181 182
169 6 181 183 184
170 6 183 185 186
171 6 190 191 192
172 6 191 193 194
173 6 193 196 197
174 6 196 199 200
175 6 199 202 203
176 6 202 204 205
177 6 204 206 207
178 6 206 209 210
179 6 209 211 212
180 6 211 213 214
181 6 213 215 216
182 6 217 218 219
183 6 218 222 223
184 6 222 224 225
185 6 224 227 228
186 6 230 231 232
187 6 231 233 234
188 6 233 235 236
189 7 8 9 10
190 7 12 13 14
191 7 15 16 17
192 8 20 21 22
193 8 20 21 23
194 7 28 29 30
195 8 38 39 40
196 8 38 39 41
197 7 48 49 50
198 7 53 54 55
199 8 56 57 58
200 8 56 57 59
201 7 60 61 62
202 8 72 73 74
203 8 72 73 75
204 8 79 80 81
205 8 79 80 82
206 7 84 85 86
207 7 87 88 89
208 8 99 100 101
209 8 99 100 102
210 8 105 106 107
211 8 105 106 108
212 7 116 117 118
213 7 121 122 123
214 9 129 130 131
215 10 129 130 132
216 7 134 135 136
217 8 149 150 151
218 8 149 150 152
219 7 161 162 163
220 7 164 165 166
221 8 167 168 169
222 8 167 168 170
223 7 178 179 180
224 8 185 186 187
225 8 185 186 188
226 7 193 194 195
227 7 196 197 198
228 7 199 200 201
229 7 206 207 208
230 8 218 219 220
231 8 218 219 221
232 7 224 225 226
233 7 227 228 229

Dihedrals

1 1 4 6 8 11
2 1 6 8 11 12
3 1 8 11 12 15
4 1 11 12 15 18
5 1 12 15 18 20
6 1 15 18 20 24
7 1 18 20 24 26
8 1 20 24 26 28
9 1 111 113 114 116
10 1 113 114 116 119
11 1 137 139 141 143
12 1 139 141 143 145
13 1 141 143 145 147
14 1 143 145 147 149
15 1 159 161 164 167
16 1 199 202 204 206
17 1 202 204 206 209
18 1 204 206 209 211
19 1 206 209 211 213
20 1 209 211 213 215
21 1 211 213 215 217
22 1 213 215 217 218
23 1 215 217 218 222
24 1 217 218 222 224
25 1 218 222 224 227
26 1 222 224 227 230
27 1 224 227 230 231
28 1 227 230 231 233

Impropers

1 1 20 22 23 21
2 1 38 40 41 39
3 1 56 58 59 57
4 1 72 74 75 73
5 1 79 81 82 80
6 1 99 101 102 100
7 1 105 107 108 106
8 1 129 131 132 130
9 2 130 131 133 132
10 1 149 151 152 150
11 1 167 169 170 168
12 1 185 187 188 186
13 1 218 220 221 219

