comment

236 atoms
248 bonds
233 angles
28 dihedrals
13 impropers

17 atom types
17 bond types
10 angle types
1 dihedral types
2 improper types

-40.5 40.5 xlo xhi
-40.5 40.5 ylo yhi
-190.0 190.0 zlo zhi

Masses

1 72.0
2 72.0
3 72.0
4 72.0
5 72.0
6 72.0
7 72.0
8 72.0
9 72.0
10 45.0
11 72.0
12 72.0
13 72.0
14 45.0
15 45.0
16 72.0
17 45.0

PairIJ Coeffs

1 1 1.19503 4.699999999999999
1 2 1.3384336 4.699999999999999
1 3 1.3384336 4.699999999999999
1 4 0.956024 4.699999999999999
1 5 0.478012 4.699999999999999
1 6 0.5497137999999999 4.699999999999999
1 7 0.836521 4.699999999999999
1 8 0.478012 4.699999999999999
1 9 1.19503 4.699999999999999
1 10 0.7409186 4.699999999999999
1 11 1.3384336 4.699999999999999
1 12 1.19503 4.699999999999999
1 13 0.7409186 4.699999999999999
1 14 0.6453162 4.699999999999999
1 15 1.19503 4.699999999999999
1 16 1.19503 4.699999999999999
1 17 0.956024 4.699999999999999
2 2 1.3384336 4.699999999999999
2 3 1.3384336 4.699999999999999
2 4 1.19503 4.699999999999999
2 5 0.5497137999999999 4.699999999999999
2 6 0.6453162 4.699999999999999
2 7 0.836521 4.699999999999999
2 8 0.478012 4.699999999999999
2 9 1.19503 4.699999999999999
2 10 0.7409186 4.699999999999999
2 11 1.3384336 4.699999999999999
2 12 1.19503 4.699999999999999
2 13 0.7409186 4.699999999999999
2 14 0.6453162 4.699999999999999
2 15 1.3384336 4.699999999999999
2 16 1.3384336 4.699999999999999
2 17 1.19503 4.699999999999999
3 3 1.19503 4.699999999999999
3 4 1.19503 4.699999999999999
3 5 0.478012 4.699999999999999
3 6 0.5497137999999999 4.699999999999999
3 7 0.836521 4.699999999999999
3 8 0.478012 4.699999999999999
3 9 0.956024 4.699999999999999
3 10 0.7409186 4.699999999999999
3 11 1.3384336 4.699999999999999
3 12 1.19503 4.699999999999999
3 13 0.7409186 4.699999999999999
3 14 0.6453162 4.699999999999999
3 15 1.19503 4.699999999999999
3 16 1.19503 4.699999999999999
3 17 1.19503 4.699999999999999
4 4 0.956024 4.699999999999999
4 5 0.6453162 4.699999999999999
4 6 0.6453162 4.699999999999999
4 7 0.836521 4.699999999999999
4 8 0.6453162 4.699999999999999
4 9 1.075527 4.699999999999999
4 10 0.836521 4.699999999999999
4 11 0.956024 4.699999999999999
4 12 1.075527 4.699999999999999
4 13 0.836521 4.699999999999999
4 14 0.7409186 4.699999999999999
4 15 1.075527 4.699999999999999
4 16 1.075527 4.699999999999999
4 17 0.956024 4.699999999999999
5 5 0.836521 4.699999999999999
5 6 0.836521 4.699999999999999
5 7 0.7409186 4.699999999999999
5 8 0.836521 4.699999999999999
5 9 0.6453162 4.699999999999999
5 10 0.7409186 4.699999999999999
5 11 0.5497137999999999 4.699999999999999
5 12 0.6453162 4.699999999999999
5 13 0.7409186 4.699999999999999
5 14 0.7409186 4.699999999999999
5 15 0.7409186 4.699999999999999
5 16 0.7409186 4.699999999999999
5 17 0.6453162 4.699999999999999
6 6 0.836521 4.699999999999999
6 7 0.836521 4.699999999999999
6 8 0.836521 4.699999999999999
6 9 0.6453162 4.699999999999999
6 10 0.836521 4.699999999999999
6 11 0.6453162 4.699999999999999
6 12 0.6453162 4.699999999999999
6 13 0.836521 4.699999999999999
6 14 0.836521 4.699999999999999
6 15 0.836521 4.699999999999999
6 16 0.836521 4.699999999999999
6 17 0.6453162 4.699999999999999
7 7 0.836521 4.699999999999999
7 8 0.6453162 4.699999999999999
7 9 0.836521 4.699999999999999
7 10 0.836521 4.699999999999999
7 11 0.836521 4.699999999999999
7 12 0.836521 4.699999999999999
7 13 0.836521 4.699999999999999
7 14 0.836521 4.699999999999999
7 15 0.956024 4.699999999999999
7 16 0.956024 4.699999999999999
7 17 0.836521 4.699999999999999
8 8 0.836521 4.699999999999999
8 9 0.6453162 4.699999999999999
8 10 0.7409186 4.699999999999999
8 11 0.478012 4.699999999999999
8 12 0.6453162 4.699999999999999
8 13 0.7409186 4.699999999999999
8 14 0.7409186 4.699999999999999
8 15 0.6453162 4.699999999999999
8 16 0.6453162 4.699999999999999
8 17 0.6453162 4.699999999999999
9 9 0.956024 4.699999999999999
9 10 0.836521 4.699999999999999
9 11 0.956024 4.699999999999999
9 12 1.075527 4.699999999999999
9 13 0.836521 4.699999999999999
9 14 0.7409186 4.699999999999999
9 15 1.075527 4.699999999999999
9 16 1.075527 4.699999999999999
9 17 1.075527 4.699999999999999
10 10 0.62739075 4.3
10 11 0.7409186 4.699999999999999
10 12 0.836521 4.699999999999999
10 13 0.836521 4.699999999999999
10 14 0.62739075 4.3
10 15 0.62739075 4.3
10 16 0.836521 4.699999999999999
10 17 0.62739075 4.3
11 11 1.19503 4.699999999999999
11 12 0.956024 4.699999999999999
11 13 0.7409186 4.699999999999999
11 14 0.6453162 4.699999999999999
11 15 1.075527 4.699999999999999
11 16 1.075527 4.699999999999999
11 17 0.956024 4.699999999999999
12 12 1.075527 4.699999999999999
12 13 0.836521 4.699999999999999
12 14 0.7409186 4.699999999999999
12 15 1.075527 4.699999999999999
12 16 1.075527 4.699999999999999
12 17 1.075527 4.699999999999999
13 13 0.836521 4.699999999999999
13 14 0.836521 4.699999999999999
13 15 0.836521 4.699999999999999
13 16 0.836521 4.699999999999999
13 17 0.836521 4.699999999999999
14 14 0.62739075 4.3
14 15 0.62739075 4.3
14 16 0.836521 4.699999999999999
14 17 0.5556889500000001 4.3
15 15 0.80664525 4.3
15 16 1.075527 4.699999999999999
15 17 0.80664525 4.3
16 16 1.075527 4.699999999999999
16 17 1.075527 4.699999999999999
17 17 0.7170179999999999 4.3

Bond Coeffs

1 1.4937875 3.5
2 8.962725 3.2
3 5.97515 4.0
4 5.97515 3.3000000000000003
5 5.97515 2.8000000000000003
6 8.962725 3.1
7 8.962725 3.0
8 5.97515 3.2
9 8.962725 3.3000000000000003
10 5.97515 3.4000000000000004
11 5.97515 3.0
12 2.987575 4.0
13 11.9503 3.3000000000000003
14 11.9503 3.1
15 11.9503 2.6500000000000004
16 11.9503 2.7
17 11.9503 2.6

Angle Coeffs

1 2.39006 127
2 83.6521 96
3 2.39006 100
4 2.39006 130
5 11.9503 98
6 2.987575 100
7 2.987575 180
8 5.97515 150
9 5.97515 210
10 5.97515 90

Dihedral Coeffs

1 95.6024 1 -120 0

Improper Coeffs

1 5.97515 0
2 23.9006 0

Atoms

1 1 1 1.0000 1.2549999 -0.027 -48.818
2 1 2 0.0000 0.0985393 0.142295 -50.709
3 1 3 -1.0000 -0.945585 -0.978066 -52.9985
4 1 4 0.0000 2.15462 2.08589 -54.2123
5 1 5 0.0000 3.41003 0.206905 -55.520702
6 1 4 0.0000 1.48167 5.18517 -54.8686
7 1 3 -1.0000 -2.14197 6.2476597 -55.033
8 1 4 0.0000 4.48913 6.2133503 -55.98
9 1 6 0.0000 6.92163 4.18866 -54.6576
10 1 1 1.0000 7.6792502 1.7680199 -55.7913
11 1 4 0.0000 4.21712 4.85505 -58.9642
12 1 7 0.0000 1.68635 6.80966 -59.9301
13 1 6 0.0000 -1.39136 6.21844 -60.787502
14 1 1 1.0000 -4.3583 5.99683 -59.429203
15 1 7 0.0000 3.40979 9.71508 -59.5442
16 1 6 0.0000 1.80188 10.8647 -56.9468
17 1 1 1.0000 0.284333 9.9849205 -54.559498
18 1 7 0.0000 5.77956 9.19813 -61.613102
19 1 8 0.0000 8.0378 7.6927605 -60.6781
20 1 9 0.0000 4.1756 9.8877 -64.4635
21 1 10 0.0000 5.56155 9.72093 -67.1909
22 1 10 0.0000 4.58955 9.5098505 -69.7457
23 1 10 0.0000 7.2606897 9.35935 -68.9655
24 1 9 0.0000 3.45242 13.1456995 -63.6799
25 1 5 0.0000 1.09552 13.590899 -62.979298
26 1 9 0.0000 6.2421203 14.2344 -63.1651
27 1 11 0.0000 4.94186 17.4638 -65.621704
28 1 9 0.0000 7.86969 13.628901 -65.9047
29 1 6 0.0000 9.23954 10.8948 -64.6589
30 1 1 1.0000 10.9606 8.51099 -65.1238
31 1 12 0.0000 7.0258803 14.3961 -69.4103
32 1 13 0.0000 8.33872 13.9493 -72.2152
33 1 7 0.0000 4.0300198 14.2107 -69.0606
34 1 12 0.0000 1.0735099 12.6124 -68.1965
35 1 11 0.0000 -1.54634 15.622 -67.8602
36 1 12 0.0000 0.25083598 12.513 -71.3209
37 1 13 0.0000 -0.85069406 15.258301 -71.508095
38 1 2 0.0000 -0.436777 8.53133 -70.6923
39 1 14 0.0000 1.8769599 7.1788197 -71.9368
40 1 15 0.0000 3.5007598 5.53998 -72.0464
41 1 15 0.0000 3.90955 7.69983 -73.687
42 1 2 0.0000 -3.23205 7.89073 -71.3472
43 1 16 0.0000 -4.87555 7.96921 -73.4042
44 1 2 0.0000 -4.35951 6.1336303 -68.3141
45 1 5 0.0000 -3.01749 4.43214 -67.14
46 1 2 0.0000 -6.78374 6.42663 -64.9871
47 1 3 -1.0000 -5.50767 9.003059 -62.9113
48 1 12 0.0000 -10.1255 3.8086 -64.3789
49 1 6 0.0000 -11.771 2.9216 -61.4967
50 1 1 1.0000 -11.735 1.4420999 -59.0989
51 1 12 0.0000 -12.027901 5.49977 -66.3762
52 1 2 0.0000 -8.91519 8.204659 -66.6189
53 1 2 0.0000 -10.2729 10.7445 -65.4479
54 1 6 0.0000 -10.8991 9.30433 -62.3766
55 1 1 1.0000 -9.3220005 7.3911295 -60.63
56 1 2 0.0000 -9.93102 12.4617 -69.299
57 1 14 0.0000 -10.4537 10.2321005 -71.6429
58 1 15 0.0000 -9.76095 8.06384 -72.7482
59 1 15 0.0000 -12.0859 7.6747203 -72.0506
60 1 2 0.0000 -5.53078 13.2523 -71.034004
61 1 6 0.0000 -5.00001 11.5693 -68.4935
62 1 1 1.0000 -3.30287 10.8738 -66.468704
63 1 2 0.0000 -3.30876 12.3246 -74.772
64 1 16 0.0000 -3.71276 14.5887 -76.347595
65 1 2 0.0000 -1.42452 10.2852 -75.6131
66 1 11 0.0000 -0.113324 7.35843 -77.0774
67 1 6 0.0000 1.60614 6.27639 -79.2313
68 1 2 0.0000 -0.99157804 4.74265 -75.0138
69 1 2 0.0000 -3.96908 4.22571 -76.6713
70 1 2 0.0000 -1.84595 2.9611998 -71.9761
71 1 8 0.0000 0.436938 2.3264198 -69.5617
72 1 12 0.0000 -5.70187 2.7029 -73.9587
73 1 14 0.0000 -7.22908 3.73646 -71.2162
74 1 15 0.0000 -9.38453 4.2711697 -70.4885
75 1 15 0.0000 -7.8112 3.14199 -68.562195
76 1 12 0.0000 -7.58686 -0.68645096 -73.428795
77 1 2 0.0000 -6.03366 -1.75905 -70.6993
78 1 8 0.0000 -4.1989202 -0.357196 -68.8182
79 1 12 0.0000 -5.48451 -5.24951 -70.335304
80 1 10 0.0000 -5.08986 -5.60287 -67.554405
81 1 10 0.0000 -3.63863 -4.63182 -65.5625
82 1 10 0.0000 -5.89489 -6.40477 -65.2843
83 1 12 0.0000 -5.8309298 -7.98286 -72.948395
84 1 2 0.0000 -4.20693 -6.96599 -76.3197
85 1 7 0.0000 -3.98412 -4.02429 -75.6118
86 1 1 1.0000 -4.21526 -1.0264001 -77.0115
87 1 2 0.0000 -3.28727 -7.58125 -79.8574
88 1 6 0.0000 -0.86476994 -9.15129 -80.6451
89 1 1 1.0000 0.823034 -11.6112 -80.2363
90 1 12 0.0000 -1.7332699 -4.56909 -80.3033
91 1 16 0.0000 0.082476206 -3.5954099 -78.8153
92 1 12 0.0000 -4.42592 -2.6880403 -81.8068
93 1 2 0.0000 -7.9312096 -1.3838301 -80.47
94 1 11 0.0000 -8.71716 -4.29182 -77.6119
95 1 11 0.0000 -8.86849 0.99295497 -77.679
96 1 7 0.0000 -10.5122 3.5386 -75.8972
97 1 6 0.0000 -13.2871 3.7246 -74.5483
98 1 12 0.0000 -8.532459 6.4838305 -77.0597
99 1 2 0.0000 -7.89415 5.0689297 -80.471405
100 1 10 0.0000 -7.5218 7.55834 -82.5215
101 1 10 0.0000 -6.30744 7.28018 -84.6237
102 1 10 0.0000 -6.5681 9.5888195 -82.9482
103 1 2 0.0000 -5.24858 2.65091 -81.5347
104 1 16 0.0000 -5.3307495 1.89367 -83.921295
105 1 2 0.0000 -2.4705 5.3540998 -82.2439
106 1 14 0.0000 -3.36102 7.65977 -80.331406
107 1 14 0.0000 -4.73556 9.33914 -78.8557
108 1 15 0.0000 -3.17655 10.247999 -80.4472
109 1 2 0.0000 -1.66824 5.46078 -85.4588
110 1 16 0.0000 -2.5640402 6.5072002 -87.778595
111 1 4 0.0000 0.92293 3.22821 -85.2309
112 1 3 -1.0000 1.9935399 1.59411 -87.687904
113 1 7 0.0000 2.23231 2.63955 -82.67551
114 1 12 0.0000 -0.0749315 0.398421 -81.611496
115 1 2 0.0000 0.0167156 1.14815 -78.6977
116 1 12 0.0000 0.15838501 -1.61039 -84.2088
117 1 6 0.0000 -2.04034 -1.18929 -86.768906
118 1 1 1.0000 -2.76701 1.05132 -87.9288
119 1 9 0.0000 3.3804603 -2.53212 -83.735
120 1 2 0.0000 4.55095 -2.7153099 -86.4781
121 1 2 0.0000 5.2080703 -4.73337 -81.73
122 1 6 0.0000 8.37542 -5.1339602 -80.9785
123 1 1 1.0000 10.421 -5.67222 -78.6121
124 1 2 0.0000 3.5083601 -6.98659 -79.6733
125 1 2 0.0000 2.37924 -7.84317 -76.6855
126 1 8 0.0000 3.66643 -10.5245 -76.2228
127 1 2 0.0000 -0.23443 -8.41916 -74.0482
128 1 16 0.0000 -1.3907801 -10.934 -74.5063
129 1 2 0.0000 0.110352 -8.28189 -70.3409
130 1 14 0.0000 -0.884052 -5.11111 -70.7009
131 1 17 0.0000 -0.552492 -2.54226 -71.6708
132 1 10 0.0000 0.395847 -4.37715 -73.1733
133 1 10 0.0000 0.495089 -1.6240599 -73.9049
134 1 2 0.0000 0.66604704 -8.84049 -67.559296
135 1 6 0.0000 2.99914 -11.258201 -66.9353
136 1 1 1.0000 4.12946 -11.6287 -64.3509
137 1 4 0.0000 2.61672 -6.44867 -65.8361
138 1 3 -1.0000 5.3987 -7.56487 -62.5887
139 1 4 0.0000 5.15934 -7.22264 -67.3721
140 1 3 -1.0000 6.4946003 -7.83274 -63.280403
141 1 4 0.0000 4.2800703 -5.83774 -70.47
142 1 16 0.0000 4.55016 -7.74751 -72.0457
143 1 12 0.0000 4.64471 -2.99168 -69.437096
144 1 8 0.0000 4.0584 -0.269745 -70.180405
145 1 9 0.0000 7.8804703 -3.28264 -69.0965
146 1 13 0.0000 9.72359 -6.40743 -66.985794
147 1 9 0.0000 8.50479 -3.81212 -72.099
148 1 3 -1.0000 11.740399 -4.04093 -74.3654
149 1 9 0.0000 7.68587 -0.806566 -73.1525
150 1 14 0.0000 5.56979 1.02792 -74.5293
151 1 14 0.0000 4.3117 2.8305302 -75.9833
152 1 15 0.0000 3.13132 1.9571 -74.1615
153 1 12 0.0000 9.55997 1.01482 -71.546104
154 1 8 0.0000 7.42234 2.81502 -70.0744
155 1 12 0.0000 12.304899 1.3805801 -72.1922
156 1 3 -1.0000 16.1904 0.15704098 -71.266396
157 1 2 0.0000 13.0558 3.35273 -74.0521
158 1 2 0.0000 15.748 4.04055 -75.3943
159 1 7 0.0000 9.909269 3.4057798 -75.6094
160 1 6 0.0000 8.11081 5.45474 -73.9023
161 1 12 0.0000 11.057 3.25462 -78.4518
162 1 6 0.0000 12.891399 5.7949104 -79.3544
163 1 1 1.0000 11.013499 8.03267 -80.1345
164 1 12 0.0000 11.4449005 0.0112679 -78.5476
165 1 6 0.0000 14.4972 -0.100816004 -78.1285
166 1 1 1.0000 15.5751 -0.986313 -75.5234
167 1 12 0.0000 8.48761 -0.95697594 -78.0943
168 1 14 0.0000 6.42178 -3.10954 -77.037704
169 1 14 0.0000 4.52841 -3.66963 -75.5226
170 1 15 0.0000 6.33803 -5.52561 -75.837105
171 1 2 0.0000 6.3327303 0.98683405 -79.9409
172 1 8 0.0000 3.9867802 -0.976465 -79.5187
173 1 7 0.0000 7.46485 0.889306 -83.6364
174 1 6 0.0000 9.05128 -1.8119401 -84.285805
175 1 12 0.0000 8.87437 4.0449 -83.0552
176 1 2 0.0000 6.4973903 4.30089 -80.5404
177 1 16 0.0000 6.7799 5.97925 -78.7713
178 1 2 0.0000 4.79213 6.8176003 -83.369995
179 1 6 0.0000 5.6801405 5.44012 -86.0302
180 1 1 1.0000 6.20047 3.3476498 -87.6871
181 1 2 0.0000 2.07754 8.83819 -83.6304
182 1 13 0.0000 2.15175 7.7739 -87.62981
183 1 2 0.0000 2.4551 11.0588 -80.192
184 1 8 0.0000 0.33269498 13.4837 -80.4509
185 1 2 0.0000 4.30715 11.2113 -77.6465
186 1 10 0.0000 2.87112 13.597 -76.0168
187 1 10 0.0000 3.3636901 15.3483 -73.822495
188 1 10 0.0000 1.28073 15.4677 -75.6472
189 1 11 0.0000 6.91601 10.9478 -76.6326
190 1 2 0.0000 11.0818 9.35506 -74.7832
191 1 2 0.0000 11.195801 7.7217503 -70.8793
192 1 8 0.0000 12.803201 9.97735 -69.5277
193 1 2 0.0000 12.2641 4.6774397 -68.7417
194 1 6 0.0000 15.2394 4.72252 -70.4385
195 1 1 1.0000 17.2316 4.29245 -69.662
196 1 2 0.0000 15.031 1.54118 -66.0307
197 1 6 0.0000 17.414 2.87727 -64.0379
198 1 1 1.0000 16.8035 4.4977098 -61.5635
199 1 4 0.0000 14.5185 -0.735138 -63.1303
200 1 6 0.0000 11.7043 -3.47201 -62.322304
201 1 1 1.0000 9.04363 -4.25024 -61.9352
202 1 4 0.0000 12.9454 1.34488 -61.2517
203 1 16 0.0000 11.7341 0.791541 -58.9562
204 1 4 0.0000 12.0024 3.54451 -63.5466
205 1 3 -1.0000 14.9931 6.3605 -65.5212
206 1 4 0.0000 10.334801 1.17136 -65.3891
207 1 7 0.0000 11.714899 -1.03811 -67.642
208 1 1 1.0000 13.127399 -3.0630698 -70.026695
209 1 7 0.0000 8.641931 -0.160909 -63.1904
210 1 3 -1.0000 6.8585496 -1.19311 -59.1552
211 1 7 0.0000 7.2174697 2.46402 -61.9308
212 1 3 -1.0000 6.167 -0.33570498 -59.46
213 1 7 0.0000 5.71248 3.2923498 -64.7723
214 1 8 0.0000 7.51064 5.46488 -66.231094
215 1 7 0.0000 4.30462 0.35210598 -64.8415
216 1 8 0.0000 4.90371 -2.46497 -65.1033
217 1 13 0.0000 2.53844 0.908454 -62.0751
218 1 7 0.0000 0.577613 2.92731 -63.4059
219 1 14 0.0000 1.37989 5.51752 -64.7524
220 1 14 0.0000 2.26728 6.38085 -67.1613
221 1 15 0.0000 0.153561 7.6193705 -65.527405
222 1 7 0.0000 -0.916861 0.571909 -65.2735
223 1 8 0.0000 0.350744 -1.8989899 -66.6722
224 1 7 0.0000 -1.84825 -1.21277 -62.5997
225 1 6 0.0000 0.739066 -3.5662498 -62.139603
226 1 1 1.0000 3.56314 -4.01373 -60.9054
227 1 9 0.0000 -3.51027 1.37557 -61.5435
228 1 6 0.0000 -2.45867 1.86167 -58.2432
229 1 1 1.0000 -3.81577 1.85425 -55.1772
230 1 7 0.0000 -5.42839 1.93312 -64.0221
231 1 9 0.0000 -6.9445095 -0.979602 -63.8536
232 1 16 0.0000 -8.25666 -1.70003 -66.0279
233 1 9 0.0000 -7.71311 -0.873982 -60.5457
234 1 2 0.0000 -5.16386 -2.2614 -58.909
235 1 3 -1.0000 -7.3438797 2.5212698 -59.4107
236 1 3 -1.0000 -8.29316 4.62394 -57.1865

Bonds

1 1 1 2
2 1 31 33
3 1 33 34
4 1 34 36
5 1 36 38
6 1 38 42
7 1 42 44
8 1 44 46
9 1 46 48
10 1 48 51
11 1 51 52
12 1 52 53
13 1 53 56
14 1 56 60
15 1 60 63
16 1 63 65
17 1 65 66
18 1 66 68
19 1 68 70
20 1 70 72
21 1 72 76
22 1 76 77
23 1 77 79
24 1 79 83
25 1 83 84
26 1 84 87
27 1 87 90
28 1 90 92
29 1 92 93
30 1 93 95
31 1 95 96
32 1 96 98
33 1 98 99
34 1 99 103
35 1 103 105
36 1 105 109
37 1 121 124
38 1 124 125
39 1 125 127
40 1 127 129
41 1 129 134
42 1 153 155
43 1 155 157
44 1 171 173
45 1 173 175
46 1 175 176
47 1 176 178
48 1 178 181
49 1 181 183
50 1 183 185
51 1 185 189
52 1 189 190
53 1 190 191
54 1 191 193
55 1 193 196
56 2 2 3
57 3 6 7
58 4 8 9
59 5 9 10
60 4 12 13
61 5 13 14
62 4 15 16
63 5 16 17
64 6 20 21
65 3 26 27
66 4 28 29
67 5 29 30
68 6 31 32
69 3 34 35
70 6 36 37
71 2 38 39
72 3 46 47
73 4 48 49
74 5 49 50
75 4 53 54
76 5 54 55
77 2 56 57
78 4 60 61
79 5 61 62
80 7 66 67
81 8 68 69
82 9 70 71
83 2 72 73
84 9 77 78
85 6 79 80
86 4 84 85
87 10 85 86
88 4 87 88
89 5 88 89
90 3 93 94
91 7 96 97
92 6 99 100
93 8 105 106
94 2 111 112
95 8 114 115
96 4 116 117
97 5 117 118
98 8 119 120
99 4 121 122
100 5 122 123
101 11 129 130
102 4 134 135
103 5 135 136
104 3 137 138
105 3 139 140
106 9 143 144
107 12 145 146
108 3 147 148
109 8 149 150
110 9 153 154
111 3 155 156
112 8 157 158
113 7 159 160
114 4 161 162
115 5 162 163
116 4 164 165
117 5 165 166
118 8 167 168
119 7 173 174
120 4 178 179
121 5 179 180
122 12 181 182
123 6 185 186
124 4 193 194
125 5 194 195
126 4 196 197
127 5 197 198
128 4 199 200
129 5 200 201
130 3 204 205
131 4 206 207
132 10 207 208
133 3 209 210
134 2 211 212
135 9 213 214
136 8 218 219
137 9 222 223
138 4 224 225
139 5 225 226
140 4 227 228
141 5 228 229
142 8 233 234
143 3 235 236
144 13 2 4
145 14 4 6
146 14 6 8
147 14 8 11
148 14 11 12
149 14 12 15
150 14 15 18
151 14 18 20
152 14 20 24
153 14 24 26
154 14 26 28
155 13 28 31
156 13 109 111
157 14 111 113
158 14 113 114
159 14 114 116
160 14 116 119
161 13 119 121
162 13 134 137
163 14 137 139
164 14 139 141
165 14 141 143
166 14 143 145
167 14 145 147
168 14 147 149
169 13 149 153
170 13 157 159
171 14 159 161
172 14 161 164
173 14 164 167
174 13 167 171
175 13 196 199
176 14 199 202
177 14 202 204
178 14 204 206
179 14 206 209
180 14 209 211
181 14 211 213
182 14 213 215
183 14 215 217
184 14 217 218
185 14 218 222
186 14 222 224
187 14 224 227
188 14 227 230
189 14 230 231
190 14 231 233
191 13 233 235
192 15 4 5
193 14 18 19
194 16 21 22
195 16 21 23
196 16 22 23
197 15 24 25
198 16 39 40
199 16 39 41
200 16 40 41
201 17 42 43
202 15 44 45
203 16 57 58
204 16 57 59
205 16 58 59
206 17 63 64
207 16 73 74
208 16 73 75
209 16 74 75
210 16 80 81
211 16 80 82
212 16 81 82
213 17 90 91
214 16 100 101
215 16 100 102
216 16 101 102
217 17 103 104
218 16 106 107
219 16 106 108
220 16 107 108
221 17 109 110
222 14 125 126
223 17 127 128
224 16 130 131
225 16 130 132
226 16 131 132
227 16 131 133
228 16 132 133
229 17 141 142
230 16 150 151
231 16 150 152
232 16 151 152
233 16 168 169
234 16 168 170
235 16 169 170
236 14 171 172
237 17 176 177
238 14 183 184
239 16 186 187
240 16 186 188
241 16 187 188
242 14 191 192
243 17 202 203
244 14 215 216
245 16 219 220
246 16 219 221
247 16 220 221
248 17 231 232

Angles

1 1 1 2 4
2 1 2 4 6
3 2 4 6 8
4 2 6 8 11
5 2 8 11 12
6 2 11 12 15
7 2 12 15 18
8 2 15 18 20
9 2 18 20 24
10 2 20 24 26
11 2 24 26 28
12 3 26 28 31
13 3 28 31 33
14 3 31 33 34
15 3 33 34 36
16 3 34 36 38
17 3 36 38 42
18 1 38 42 44
19 1 42 44 46
20 3 44 46 48
21 3 46 48 51
22 3 48 51 52
23 3 51 52 53
24 1 52 53 56
25 1 53 56 60
26 1 56 60 63
27 1 60 63 65
28 4 63 65 66
29 1 65 66 68
30 1 66 68 70
31 3 68 70 72
32 3 70 72 76
33 3 72 76 77
34 3 76 77 79
35 3 77 79 83
36 3 79 83 84
37 3 83 84 87
38 3 84 87 90
39 3 87 90 92
40 3 90 92 93
41 3 92 93 95
42 1 93 95 96
43 3 95 96 98
44 3 96 98 99
45 3 98 99 103
46 1 99 103 105
47 1 103 105 109
48 1 105 109 111
49 1 109 111 113
50 2 111 113 114
51 2 113 114 116
52 2 114 116 119
53 1 116 119 121
54 1 119 121 124
55 1 121 124 125
56 1 124 125 127
57 1 125 127 129
58 1 127 129 134
59 1 129 134 137
60 4 134 137 139
61 2 137 139 141
62 2 139 141 143
63 2 141 143 145
64 2 143 145 147
65 2 145 147 149
66 3 147 149 153
67 3 149 153 155
68 3 153 155 157
69 3 155 157 159
70 5 157 159 161
71 5 159 161 164
72 2 161 164 167
73 4 164 167 171
74 4 167 171 173
75 3 171 173 175
76 3 173 175 176
77 3 175 176 178
78 1 176 178 181
79 1 178 181 183
80 1 181 183 185
81 1 183 185 189
82 1 185 189 190
83 1 189 190 191
84 1 190 191 193
85 1 191 193 196
86 1 193 196 199
87 4 196 199 202
88 2 199 202 204
89 2 202 204 206
90 2 204 206 209
91 2 206 209 211
92 2 209 211 213
93 2 211 213 215
94 2 213 215 217
95 2 215 217 218
96 2 217 218 222
97 2 218 222 224
98 2 222 224 227
99 2 224 227 230
100 2 227 230 231
101 2 230 231 233
102 1 231 233 235
103 6 1 2 3
104 6 2 4 5
105 6 4 6 7
106 6 6 8 9
107 6 11 12 13
108 6 12 15 16
109 6 15 18 19
110 6 18 20 21
111 6 20 24 25
112 6 24 26 27
113 6 26 28 29
114 6 28 31 32
115 6 33 34 35
116 6 34 36 37
117 6 36 38 39
118 6 38 42 43
119 6 42 44 45
120 6 44 46 47
121 6 46 48 49
122 6 52 53 54
123 6 53 56 57
124 6 56 60 61
125 6 60 63 64
126 6 65 66 67
127 6 66 68 69
128 6 68 70 71
129 6 70 72 73
130 6 76 77 78
131 6 77 79 80
132 6 83 84 85
133 6 84 87 88
134 6 87 90 91
135 6 92 93 94
136 6 95 96 97
137 6 98 99 100
138 6 99 103 104
139 6 103 105 106
140 6 105 109 110
141 6 109 111 112
142 6 113 114 115
143 6 114 116 117
144 6 116 119 120
145 6 119 121 122
146 6 124 125 126
147 6 125 127 128
148 6 127 129 130
149 6 129 134 135
150 6 134 137 138
151 6 137 139 140
152 6 139 141 142
153 6 141 143 144
154 6 143 145 146
155 6 145 147 148
156 6 147 149 150
157 6 149 153 154
158 6 153 155 156
159 6 155 157 158
160 6 157 159 160
161 6 159 161 162
162 6 161 164 165
163 6 164 167 168
164 6 167 171 172
165 6 171 173 174
166 6 175 176 177
167 6 176 178 179
168 6 178 181 182
169 6 181 183 184
170 6 183 185 186
171 6 190 191 192
172 6 191 193 194
173 6 193 196 197
174 6 196 199 200
175 6 199 202 203
176 6 202 204 205
177 6 204 206 207
178 6 206 209 210
179 6 209 211 212
180 6 211 213 214
181 6 213 215 216
182 6 217 218 219
183 6 218 222 223
184 6 222 224 225
185 6 224 227 228
186 6 230 231 232
187 6 231 233 234
188 6 233 235 236
189 7 8 9 10
190 7 12 13 14
191 7 15 16 17
192 8 20 21 22
193 8 20 21 23
194 7 28 29 30
195 8 38 39 40
196 8 38 39 41
197 7 48 49 50
198 7 53 54 55
199 8 56 57 58
200 8 56 57 59
201 7 60 61 62
202 8 72 73 74
203 8 72 73 75
204 8 79 80 81
205 8 79 80 82
206 7 84 85 86
207 7 87 88 89
208 8 99 100 101
209 8 99 100 102
210 8 105 106 107
211 8 105 106 108
212 7 116 117 118
213 7 121 122 123
214 9 129 130 131
215 10 129 130 132
216 7 134 135 136
217 8 149 150 151
218 8 149 150 152
219 7 161 162 163
220 7 164 165 166
221 8 167 168 169
222 8 167 168 170
223 7 178 179 180
224 8 185 186 187
225 8 185 186 188
226 7 193 194 195
227 7 196 197 198
228 7 199 200 201
229 7 206 207 208
230 8 218 219 220
231 8 218 219 221
232 7 224 225 226
233 7 227 228 229

Dihedrals

1 1 4 6 8 11
2 1 6 8 11 12
3 1 8 11 12 15
4 1 11 12 15 18
5 1 12 15 18 20
6 1 15 18 20 24
7 1 18 20 24 26
8 1 20 24 26 28
9 1 111 113 114 116
10 1 113 114 116 119
11 1 137 139 141 143
12 1 139 141 143 145
13 1 141 143 145 147
14 1 143 145 147 149
15 1 159 161 164 167
16 1 199 202 204 206
17 1 202 204 206 209
18 1 204 206 209 211
19 1 206 209 211 213
20 1 209 211 213 215
21 1 211 213 215 217
22 1 213 215 217 218
23 1 215 217 218 222
24 1 217 218 222 224
25 1 218 222 224 227
26 1 222 224 227 230
27 1 224 227 230 231
28 1 227 230 231 233

Impropers

1 1 20 22 23 21
2 1 38 40 41 39
3 1 56 58 59 57
4 1 72 74 75 73
5 1 79 81 82 80
6 1 99 101 102 100
7 1 105 107 108 106
8 1 129 131 132 130
9 2 130 131 133 132
10 1 149 151 152 150
11 1 167 169 170 168
12 1 185 187 188 186
13 1 218 220 221 219

