comment

236 atoms
248 bonds
233 angles
28 dihedrals
13 impropers

17 atom types
17 bond types
10 angle types
1 dihedral types
2 improper types

-40.5 40.5 xlo xhi
-40.5 40.5 ylo yhi
-190.0 190.0 zlo zhi

Masses

1 72.0
2 72.0
3 72.0
4 72.0
5 72.0
6 72.0
7 72.0
8 72.0
9 72.0
10 45.0
11 72.0
12 72.0
13 72.0
14 45.0
15 45.0
16 72.0
17 45.0

PairIJ Coeffs

1 1 1.19503 4.699999999999999
1 2 1.3384336 4.699999999999999
1 3 1.3384336 4.699999999999999
1 4 0.956024 4.699999999999999
1 5 0.478012 4.699999999999999
1 6 0.5497137999999999 4.699999999999999
1 7 0.836521 4.699999999999999
1 8 0.478012 4.699999999999999
1 9 1.19503 4.699999999999999
1 10 0.7409186 4.699999999999999
1 11 1.3384336 4.699999999999999
1 12 1.19503 4.699999999999999
1 13 0.7409186 4.699999999999999
1 14 0.6453162 4.699999999999999
1 15 1.19503 4.699999999999999
1 16 1.19503 4.699999999999999
1 17 0.956024 4.699999999999999
2 2 1.3384336 4.699999999999999
2 3 1.3384336 4.699999999999999
2 4 1.19503 4.699999999999999
2 5 0.5497137999999999 4.699999999999999
2 6 0.6453162 4.699999999999999
2 7 0.836521 4.699999999999999
2 8 0.478012 4.699999999999999
2 9 1.19503 4.699999999999999
2 10 0.7409186 4.699999999999999
2 11 1.3384336 4.699999999999999
2 12 1.19503 4.699999999999999
2 13 0.7409186 4.699999999999999
2 14 0.6453162 4.699999999999999
2 15 1.3384336 4.699999999999999
2 16 1.3384336 4.699999999999999
2 17 1.19503 4.699999999999999
3 3 1.19503 4.699999999999999
3 4 1.19503 4.699999999999999
3 5 0.478012 4.699999999999999
3 6 0.5497137999999999 4.699999999999999
3 7 0.836521 4.699999999999999
3 8 0.478012 4.699999999999999
3 9 0.956024 4.699999999999999
3 10 0.7409186 4.699999999999999
3 11 1.3384336 4.699999999999999
3 12 1.19503 4.699999999999999
3 13 0.7409186 4.699999999999999
3 14 0.6453162 4.699999999999999
3 15 1.19503 4.699999999999999
3 16 1.19503 4.699999999999999
3 17 1.19503 4.699999999999999
4 4 0.956024 4.699999999999999
4 5 0.6453162 4.699999999999999
4 6 0.6453162 4.699999999999999
4 7 0.836521 4.699999999999999
4 8 0.6453162 4.699999999999999
4 9 1.075527 4.699999999999999
4 10 0.836521 4.699999999999999
4 11 0.956024 4.699999999999999
4 12 1.075527 4.699999999999999
4 13 0.836521 4.699999999999999
4 14 0.7409186 4.699999999999999
4 15 1.075527 4.699999999999999
4 16 1.075527 4.699999999999999
4 17 0.956024 4.699999999999999
5 5 0.836521 4.699999999999999
5 6 0.836521 4.699999999999999
5 7 0.7409186 4.699999999999999
5 8 0.836521 4.699999999999999
5 9 0.6453162 4.699999999999999
5 10 0.7409186 4.699999999999999
5 11 0.5497137999999999 4.699999999999999
5 12 0.6453162 4.699999999999999
5 13 0.7409186 4.699999999999999
5 14 0.7409186 4.699999999999999
5 15 0.7409186 4.699999999999999
5 16 0.7409186 4.699999999999999
5 17 0.6453162 4.699999999999999
6 6 0.836521 4.699999999999999
6 7 0.836521 4.699999999999999
6 8 0.836521 4.699999999999999
6 9 0.6453162 4.699999999999999
6 10 0.836521 4.699999999999999
6 11 0.6453162 4.699999999999999
6 12 0.6453162 4.699999999999999
6 13 0.836521 4.699999999999999
6 14 0.836521 4.699999999999999
6 15 0.836521 4.699999999999999
6 16 0.836521 4.699999999999999
6 17 0.6453162 4.699999999999999
7 7 0.836521 4.699999999999999
7 8 0.6453162 4.699999999999999
7 9 0.836521 4.699999999999999
7 10 0.836521 4.699999999999999
7 11 0.836521 4.699999999999999
7 12 0.836521 4.699999999999999
7 13 0.836521 4.699999999999999
7 14 0.836521 4.699999999999999
7 15 0.956024 4.699999999999999
7 16 0.956024 4.699999999999999
7 17 0.836521 4.699999999999999
8 8 0.836521 4.699999999999999
8 9 0.6453162 4.699999999999999
8 10 0.7409186 4.699999999999999
8 11 0.478012 4.699999999999999
8 12 0.6453162 4.699999999999999
8 13 0.7409186 4.699999999999999
8 14 0.7409186 4.699999999999999
8 15 0.6453162 4.699999999999999
8 16 0.6453162 4.699999999999999
8 17 0.6453162 4.699999999999999
9 9 0.956024 4.699999999999999
9 10 0.836521 4.699999999999999
9 11 0.956024 4.699999999999999
9 12 1.075527 4.699999999999999
9 13 0.836521 4.699999999999999
9 14 0.7409186 4.699999999999999
9 15 1.075527 4.699999999999999
9 16 1.075527 4.699999999999999
9 17 1.075527 4.699999999999999
10 10 0.62739075 4.3
10 11 0.7409186 4.699999999999999
10 12 0.836521 4.699999999999999
10 13 0.836521 4.699999999999999
10 14 0.62739075 4.3
10 15 0.62739075 4.3
10 16 0.836521 4.699999999999999
10 17 0.62739075 4.3
11 11 1.19503 4.699999999999999
11 12 0.956024 4.699999999999999
11 13 0.7409186 4.699999999999999
11 14 0.6453162 4.699999999999999
11 15 1.075527 4.699999999999999
11 16 1.075527 4.699999999999999
11 17 0.956024 4.699999999999999
12 12 1.075527 4.699999999999999
12 13 0.836521 4.699999999999999
12 14 0.7409186 4.699999999999999
12 15 1.075527 4.699999999999999
12 16 1.075527 4.699999999999999
12 17 1.075527 4.699999999999999
13 13 0.836521 4.699999999999999
13 14 0.836521 4.699999999999999
13 15 0.836521 4.699999999999999
13 16 0.836521 4.699999999999999
13 17 0.836521 4.699999999999999
14 14 0.62739075 4.3
14 15 0.62739075 4.3
14 16 0.836521 4.699999999999999
14 17 0.5556889500000001 4.3
15 15 0.80664525 4.3
15 16 1.075527 4.699999999999999
15 17 0.80664525 4.3
16 16 1.075527 4.699999999999999
16 17 1.075527 4.699999999999999
17 17 0.7170179999999999 4.3

Bond Coeffs

1 1.4937875 3.5
2 8.962725 3.2
3 5.97515 4.0
4 5.97515 3.3000000000000003
5 5.97515 2.8000000000000003
6 8.962725 3.1
7 8.962725 3.0
8 5.97515 3.2
9 8.962725 3.3000000000000003
10 5.97515 3.4000000000000004
11 5.97515 3.0
12 2.987575 4.0
13 11.9503 3.3000000000000003
14 11.9503 3.1
15 11.9503 2.6500000000000004
16 11.9503 2.7
17 11.9503 2.6

Angle Coeffs

1 2.39006 127
2 83.6521 96
3 2.39006 100
4 2.39006 130
5 11.9503 98
6 2.987575 100
7 2.987575 180
8 5.97515 150
9 5.97515 210
10 5.97515 90

Dihedral Coeffs

1 95.6024 1 -120 0

Improper Coeffs

1 5.97515 0
2 23.9006 0

Atoms

1 1 1 1.0000 1.2549999 -0.027 -48.818
2 1 2 0.0000 0.137756 0.0917894 -51.300903
3 1 3 -1.0000 -1.0832499 -0.878783 -53.1501
4 1 4 0.0000 2.17465 2.03578 -54.390102
5 1 5 0.0000 3.2892 0.267323 -55.5769
6 1 4 0.0000 1.73343 5.3143797 -54.6809
7 1 3 -1.0000 -1.7583201 6.2244997 -55.0838
8 1 4 0.0000 4.3538003 6.26818 -55.9226
9 1 6 0.0000 7.22166 4.38583 -54.7762
10 1 1 1.0000 7.91781 2.17921 -56.2041
11 1 4 0.0000 4.19495 4.69706 -58.8581
12 1 7 0.0000 1.69049 6.8164997 -59.9929
13 1 6 0.0000 -1.68642 5.96694 -60.9522
14 1 1 1.0000 -4.27057 6.26114 -59.2609
15 1 7 0.0000 3.62488 9.667419 -59.4714
16 1 6 0.0000 1.88455 11.0063 -57.0042
17 1 1 1.0000 0.46503398 10.2818 -54.8143
18 1 7 0.0000 6.09412 9.27387 -61.8084
19 1 8 0.0000 8.14171 7.15373 -60.6705
20 1 9 0.0000 4.5409 9.77394 -64.3224
21 1 10 0.0000 5.2490597 9.47966 -67.4917
22 1 10 0.0000 4.5700603 9.65582 -69.9498
23 1 10 0.0000 7.18307 9.62214 -69.049805
24 1 9 0.0000 3.47782 13.028899 -63.7538
25 1 5 0.0000 1.09845 13.746099 -63.221596
26 1 9 0.0000 6.27732 14.194099 -63.247498
27 1 11 0.0000 4.81989 17.6774 -65.811
28 1 9 0.0000 7.8706098 13.294701 -66.0644
29 1 6 0.0000 9.69858 10.848599 -64.7212
30 1 1 1.0000 11.1029005 8.2407 -65.1148
31 1 12 0.0000 7.12432 14.1423 -69.4459
32 1 13 0.0000 8.58976 13.6682 -71.9773
33 1 7 0.0000 4.31511 14.274 -68.9426
34 1 12 0.0000 1.32284 12.4599 -68.195404
35 1 11 0.0000 -1.5250001 15.3846 -67.833496
36 1 12 0.0000 0.0032522099 12.422 -71.262
37 1 13 0.0000 -0.700567 15.4113 -71.2717
38 1 2 0.0000 -0.760433 8.57131 -70.7058
39 1 14 0.0000 1.6153599 7.21394 -72.1386
40 1 15 0.0000 3.39241 5.64125 -72.199104
41 1 15 0.0000 3.5275998 7.60858 -73.8837
42 1 2 0.0000 -3.53695 7.92108 -70.8475
43 1 16 0.0000 -4.70784 8.10259 -73.340904
44 1 2 0.0000 -4.5355 6.34008 -68.0685
45 1 5 0.0000 -2.98499 4.41052 -67.0983
46 1 2 0.0000 -7.00611 6.04363 -65.1484
47 1 3 -1.0000 -5.2928 9.09482 -62.9102
48 1 12 0.0000 -10.2246 3.9735498 -64.509
49 1 6 0.0000 -11.7874 2.8234198 -61.6024
50 1 1 1.0000 -11.467299 1.71093 -58.505703
51 1 12 0.0000 -12.294901 5.4941897 -66.7218
52 1 2 0.0000 -9.31307 8.14542 -67.3956
53 1 2 0.0000 -9.946529 10.3806 -65.802795
54 1 6 0.0000 -10.802899 9.20242 -62.5139
55 1 1 1.0000 -9.14289 7.54834 -60.700104
56 1 2 0.0000 -9.70528 12.7664995 -69.8694
57 1 14 0.0000 -10.6385 10.1267 -71.627594
58 1 15 0.0000 -9.41482 8.0853195 -72.4345
59 1 15 0.0000 -12.104501 7.81251 -72.1308
60 1 2 0.0000 -5.80599 12.904901 -71.4206
61 1 6 0.0000 -5.08775 11.5834 -68.1776
62 1 1 1.0000 -3.3519 11.1683 -66.5615
63 1 2 0.0000 -3.13934 12.5884 -74.819496
64 1 16 0.0000 -3.56147 14.7493 -76.3873
65 1 2 0.0000 -0.610024 10.2754 -75.975
66 1 11 0.0000 -0.0714201 6.88836 -76.7548
67 1 6 0.0000 1.53842 6.14639 -79.358604
68 1 2 0.0000 -1.43757 4.64332 -74.9288
69 1 2 0.0000 -4.51969 3.7328198 -75.7548
70 1 2 0.0000 -1.82294 3.02537 -71.6079
71 1 8 0.0000 0.2856 2.3011 -69.6616
72 1 12 0.0000 -5.77424 3.01406 -74.0824
73 1 14 0.0000 -7.19899 3.77803 -71.237404
74 1 15 0.0000 -9.60889 4.30573 -70.6115
75 1 15 0.0000 -8.22949 2.8171 -68.899796
76 1 12 0.0000 -7.66298 -0.708898 -73.127396
77 1 2 0.0000 -5.4667597 -2.30762 -70.9472
78 1 8 0.0000 -4.22621 -0.471369 -68.8269
79 1 12 0.0000 -5.6483297 -5.35487 -70.3245
80 1 10 0.0000 -5.19125 -6.03997 -67.6312
81 1 10 0.0000 -3.73992 -4.55213 -65.3311
82 1 10 0.0000 -5.6113396 -6.42805 -65.1044
83 1 12 0.0000 -5.6454496 -8.04134 -72.6814
84 1 2 0.0000 -5.16285 -6.7614403 -76.0155
85 1 7 0.0000 -4.03191 -3.9116702 -75.3916
86 1 1 1.0000 -3.9021502 -1.36552 -77.047
87 1 2 0.0000 -3.1806002 -7.32769 -79.0214
88 1 6 0.0000 -1.1565601 -9.55417 -80.6505
89 1 1 1.0000 0.08112921 -12.0719 -79.813095
90 1 12 0.0000 -1.60892 -4.63111 -79.944
91 1 16 0.0000 0.285083 -3.7647798 -78.871
92 1 12 0.0000 -4.63825 -2.60223 -81.945
93 1 2 0.0000 -7.5785203 -1.19036 -80.6366
94 1 11 0.0000 -8.95636 -3.95931 -77.9993
95 1 11 0.0000 -8.72528 1.3427199 -77.9709
96 1 7 0.0000 -10.2533 3.5232499 -76.0953
97 1 6 0.0000 -13.2169 3.73229 -74.4443
98 1 12 0.0000 -9.08051 6.7701797 -77.3648
99 1 2 0.0000 -7.35395 5.19456 -80.2083
100 1 10 0.0000 -7.70936 7.4215503 -82.5079
101 1 10 0.0000 -6.3014 7.2919397 -84.8891
102 1 10 0.0000 -6.64397 9.56032 -83.22389
103 1 2 0.0000 -5.0805497 3.1544101 -81.2228
104 1 16 0.0000 -5.25912 2.0251398 -83.8869
105 1 2 0.0000 -2.53096 5.5964 -82.573006
106 1 14 0.0000 -3.27564 7.9430003 -80.43761
107 1 14 0.0000 -4.87932 9.4287195 -78.5558
108 1 15 0.0000 -3.25064 10.5424 -80.176605
109 1 2 0.0000 -1.5776501 4.99459 -85.5177
110 1 16 0.0000 -2.55966 6.44135 -87.6867
111 1 4 0.0000 1.27927 3.48208 -85.3688
112 1 3 -1.0000 1.99611 1.7977101 -87.7837
113 1 7 0.0000 2.1335099 2.61989 -82.5491
114 1 12 0.0000 -0.254767 0.668289 -81.5763
115 1 2 0.0000 -0.077559195 1.20146 -78.4139
116 1 12 0.0000 0.14637 -1.49527 -84.035194
117 1 6 0.0000 -1.7645199 -1.06127 -86.7832
118 1 1 1.0000 -2.62086 0.886387 -88.3339
119 1 9 0.0000 3.20332 -2.19718 -83.6647
120 1 2 0.0000 5.01192 -1.93878 -86.6896
121 1 2 0.0000 4.66432 -4.88264 -81.8851
122 1 6 0.0000 8.1755 -5.1697497 -81.264
123 1 1 1.0000 10.0272 -5.38131 -79.1036
124 1 2 0.0000 3.96633 -7.4792 -80.141
125 1 2 0.0000 1.89328 -8.20445 -77.1278
126 1 8 0.0000 3.30794 -10.7695 -76.36
127 1 2 0.0000 -0.44344202 -8.16563 -74.5483
128 1 16 0.0000 -1.3977801 -10.647699 -74.5504
129 1 2 0.0000 -1.07989 -7.72563 -70.3674
130 1 14 0.0000 -0.723233 -5.08908 -70.7475
131 1 17 0.0000 -0.650547 -2.57048 -71.5939
132 1 10 0.0000 0.571349 -4.31699 -73.0399
133 1 10 0.0000 0.670332 -1.9331 -74.01
134 1 2 0.0000 0.47727 -8.77225 -67.192795
135 1 6 0.0000 2.98489 -11.0429 -66.971
136 1 1 1.0000 4.21401 -11.5431 -64.634796
137 1 4 0.0000 2.45636 -6.52547 -65.7883
138 1 3 -1.0000 5.52445 -7.6707897 -62.522804
139 1 4 0.0000 5.04082 -7.33228 -67.3763
140 1 3 -1.0000 6.69213 -8.10011 -63.002502
141 1 4 0.0000 4.2014 -5.66519 -70.4393
142 1 16 0.0000 4.95847 -7.67597 -71.974304
143 1 12 0.0000 4.38919 -3.03548 -69.5863
144 1 8 0.0000 4.11299 -0.348531 -70.4112
145 1 9 0.0000 7.6162796 -3.12873 -68.8663
146 1 13 0.0000 9.56726 -6.26502 -67.1745
147 1 9 0.0000 8.67441 -3.6856499 -71.8878
148 1 3 -1.0000 11.8539 -4.11923 -74.6137
149 1 9 0.0000 7.69916 -0.725691 -73.357605
150 1 14 0.0000 5.70178 1.35251 -74.696106
151 1 14 0.0000 4.18574 2.76026 -76.403496
152 1 15 0.0000 3.07745 1.6692101 -74.3579
153 1 12 0.0000 9.2711 0.907351 -71.2102
154 1 8 0.0000 7.32327 2.8767 -70.0578
155 1 12 0.0000 12.5166 1.14168 -72.221596
156 1 3 -1.0000 16.229 0.054120302 -71.5865
157 1 2 0.0000 12.7041 3.25798 -74.2217
158 1 2 0.0000 15.7313 4.41598 -75.066
159 1 7 0.0000 9.56662 3.84042 -75.6071
160 1 6 0.0000 8.10919 5.54322 -73.7737
161 1 12 0.0000 10.9019 3.34238 -78.5096
162 1 6 0.0000 12.9389 5.96878 -79.3776
163 1 1 1.0000 13.554501 8.21406 -77.6047
164 1 12 0.0000 11.4235 0.20583199 -78.339
165 1 6 0.0000 14.238501 0.0269135 -78.0414
166 1 1 1.0000 15.570001 -1.29475 -76.1353
167 1 12 0.0000 8.42887 -0.856494 -78.3075
168 1 14 0.0000 6.2618203 -3.28303 -77.0687
169 1 14 0.0000 4.32646 -3.8670502 -75.4074
170 1 15 0.0000 6.5355496 -5.734 -75.911
171 1 2 0.0000 6.32577 0.33218202 -80.2232
172 1 8 0.0000 3.84132 -1.1276 -79.3386
173 1 7 0.0000 7.60275 0.818771 -83.772896
174 1 6 0.0000 9.32813 -1.53602 -84.171
175 1 12 0.0000 8.50989 3.92412 -83.020004
176 1 2 0.0000 5.8623 5.0864897 -80.9814
177 1 16 0.0000 6.7792397 5.9295397 -78.8089
178 1 2 0.0000 4.78412 6.88477 -83.516
179 1 6 0.0000 5.59461 5.1527205 -86.0703
180 1 1 1.0000 6.16988 3.0495799 -87.9414
181 1 2 0.0000 2.17305 8.56026 -83.62311
182 1 13 0.0000 2.09501 7.9040403 -87.859406
183 1 2 0.0000 2.15602 10.9402 -80.7254
184 1 8 0.0000 0.307849 13.5258 -80.5196
185 1 2 0.0000 4.04117 10.940599 -78.3202
186 1 10 0.0000 3.0541 13.4647 -76.2428
187 1 10 0.0000 3.70579 14.9887 -73.921295
188 1 10 0.0000 1.57071 15.754 -75.7544
189 1 11 0.0000 7.2393503 11.026501 -76.4277
190 1 2 0.0000 9.8456 9.5654 -74.433
191 1 2 0.0000 11.4582 7.68359 -71.4258
192 1 8 0.0000 12.5096 10.0167 -69.5338
193 1 2 0.0000 11.8043995 4.78239 -69.1565
194 1 6 0.0000 14.9829 4.61953 -70.092606
195 1 1 1.0000 17.5198 3.82977 -69.592804
196 1 2 0.0000 15.1868 1.64046 -65.992195
197 1 6 0.0000 17.8697 2.7602801 -64.1712
198 1 1 1.0000 17.1285 3.95541 -61.905
199 1 4 0.0000 14.545 -0.831326 -63.6179
200 1 6 0.0000 11.7379 -3.33722 -62.144096
201 1 1 1.0000 9.0285 -4.54197 -61.445
202 1 4 0.0000 12.859301 1.16588 -61.435898
203 1 16 0.0000 11.664 0.620814 -59.310196
204 1 4 0.0000 11.9951 3.3031402 -63.5313
205 1 3 -1.0000 15.099501 6.41057 -65.5325
206 1 4 0.0000 10.441199 1.3929901 -65.5635
207 1 7 0.0000 12.0582 -1.1493 -67.8171
208 1 1 1.0000 13.245 -3.30089 -70.1025
209 1 7 0.0000 8.51207 -0.0706095 -63.3125
210 1 3 -1.0000 6.9582896 -1.17427 -59.2539
211 1 7 0.0000 7.11303 2.52493 -62.023903
212 1 3 -1.0000 6.2156396 -0.34695402 -59.4645
213 1 7 0.0000 5.74286 3.24471 -64.8916
214 1 8 0.0000 7.76772 5.36718 -66.3274
215 1 7 0.0000 4.16852 0.45233902 -64.748604
216 1 8 0.0000 4.79943 -2.41017 -64.9663
217 1 13 0.0000 2.5652301 1.09444 -62.118603
218 1 7 0.0000 0.542249 3.05932 -63.598297
219 1 14 0.0000 1.20246 5.42527 -64.819595
220 1 14 0.0000 1.8989199 6.3308196 -67.171104
221 1 15 0.0000 0.16508499 7.68252 -65.521
222 1 7 0.0000 -0.97366804 0.523376 -65.1683
223 1 8 0.0000 0.18279901 -2.1947 -66.754395
224 1 7 0.0000 -1.95628 -1.03257 -62.5867
225 1 6 0.0000 0.68998903 -3.3414001 -62.2374
226 1 1 1.0000 3.5146499 -3.73744 -60.9866
227 1 9 0.0000 -3.4615002 1.4292 -61.3937
228 1 6 0.0000 -2.7027602 1.6103301 -58.043
229 1 1 1.0000 -4.04073 1.92152 -55.2464
230 1 7 0.0000 -5.4204397 1.99219 -63.930504
231 1 9 0.0000 -6.98907 -1.0042 -63.5664
232 1 16 0.0000 -8.09348 -1.36011 -65.886
233 1 9 0.0000 -7.88372 -0.618367 -60.636
234 1 2 0.0000 -8.56591 -3.4766998 -59.5307
235 1 3 -1.0000 -7.3807597 2.71662 -59.440697
236 1 3 -1.0000 -8.168241 4.65906 -57.2711

Bonds

1 1 1 2
2 1 31 33
3 1 33 34
4 1 34 36
5 1 36 38
6 1 38 42
7 1 42 44
8 1 44 46
9 1 46 48
10 1 48 51
11 1 51 52
12 1 52 53
13 1 53 56
14 1 56 60
15 1 60 63
16 1 63 65
17 1 65 66
18 1 66 68
19 1 68 70
20 1 70 72
21 1 72 76
22 1 76 77
23 1 77 79
24 1 79 83
25 1 83 84
26 1 84 87
27 1 87 90
28 1 90 92
29 1 92 93
30 1 93 95
31 1 95 96
32 1 96 98
33 1 98 99
34 1 99 103
35 1 103 105
36 1 105 109
37 1 121 124
38 1 124 125
39 1 125 127
40 1 127 129
41 1 129 134
42 1 153 155
43 1 155 157
44 1 171 173
45 1 173 175
46 1 175 176
47 1 176 178
48 1 178 181
49 1 181 183
50 1 183 185
51 1 185 189
52 1 189 190
53 1 190 191
54 1 191 193
55 1 193 196
56 2 2 3
57 3 6 7
58 4 8 9
59 5 9 10
60 4 12 13
61 5 13 14
62 4 15 16
63 5 16 17
64 6 20 21
65 3 26 27
66 4 28 29
67 5 29 30
68 6 31 32
69 3 34 35
70 6 36 37
71 2 38 39
72 3 46 47
73 4 48 49
74 5 49 50
75 4 53 54
76 5 54 55
77 2 56 57
78 4 60 61
79 5 61 62
80 7 66 67
81 8 68 69
82 9 70 71
83 2 72 73
84 9 77 78
85 6 79 80
86 4 84 85
87 10 85 86
88 4 87 88
89 5 88 89
90 3 93 94
91 7 96 97
92 6 99 100
93 8 105 106
94 2 111 112
95 8 114 115
96 4 116 117
97 5 117 118
98 8 119 120
99 4 121 122
100 5 122 123
101 11 129 130
102 4 134 135
103 5 135 136
104 3 137 138
105 3 139 140
106 9 143 144
107 12 145 146
108 3 147 148
109 8 149 150
110 9 153 154
111 3 155 156
112 8 157 158
113 7 159 160
114 4 161 162
115 5 162 163
116 4 164 165
117 5 165 166
118 8 167 168
119 7 173 174
120 4 178 179
121 5 179 180
122 12 181 182
123 6 185 186
124 4 193 194
125 5 194 195
126 4 196 197
127 5 197 198
128 4 199 200
129 5 200 201
130 3 204 205
131 4 206 207
132 10 207 208
133 3 209 210
134 2 211 212
135 9 213 214
136 8 218 219
137 9 222 223
138 4 224 225
139 5 225 226
140 4 227 228
141 5 228 229
142 8 233 234
143 3 235 236
144 13 2 4
145 14 4 6
146 14 6 8
147 14 8 11
148 14 11 12
149 14 12 15
150 14 15 18
151 14 18 20
152 14 20 24
153 14 24 26
154 14 26 28
155 13 28 31
156 13 109 111
157 14 111 113
158 14 113 114
159 14 114 116
160 14 116 119
161 13 119 121
162 13 134 137
163 14 137 139
164 14 139 141
165 14 141 143
166 14 143 145
167 14 145 147
168 14 147 149
169 13 149 153
170 13 157 159
171 14 159 161
172 14 161 164
173 14 164 167
174 13 167 171
175 13 196 199
176 14 199 202
177 14 202 204
178 14 204 206
179 14 206 209
180 14 209 211
181 14 211 213
182 14 213 215
183 14 215 217
184 14 217 218
185 14 218 222
186 14 222 224
187 14 224 227
188 14 227 230
189 14 230 231
190 14 231 233
191 13 233 235
192 15 4 5
193 14 18 19
194 16 21 22
195 16 21 23
196 16 22 23
197 15 24 25
198 16 39 40
199 16 39 41
200 16 40 41
201 17 42 43
202 15 44 45
203 16 57 58
204 16 57 59
205 16 58 59
206 17 63 64
207 16 73 74
208 16 73 75
209 16 74 75
210 16 80 81
211 16 80 82
212 16 81 82
213 17 90 91
214 16 100 101
215 16 100 102
216 16 101 102
217 17 103 104
218 16 106 107
219 16 106 108
220 16 107 108
221 17 109 110
222 14 125 126
223 17 127 128
224 16 130 131
225 16 130 132
226 16 131 132
227 16 131 133
228 16 132 133
229 17 141 142
230 16 150 151
231 16 150 152
232 16 151 152
233 16 168 169
234 16 168 170
235 16 169 170
236 14 171 172
237 17 176 177
238 14 183 184
239 16 186 187
240 16 186 188
241 16 187 188
242 14 191 192
243 17 202 203
244 14 215 216
245 16 219 220
246 16 219 221
247 16 220 221
248 17 231 232

Angles

1 1 1 2 4
2 1 2 4 6
3 2 4 6 8
4 2 6 8 11
5 2 8 11 12
6 2 11 12 15
7 2 12 15 18
8 2 15 18 20
9 2 18 20 24
10 2 20 24 26
11 2 24 26 28
12 3 26 28 31
13 3 28 31 33
14 3 31 33 34
15 3 33 34 36
16 3 34 36 38
17 3 36 38 42
18 1 38 42 44
19 1 42 44 46
20 3 44 46 48
21 3 46 48 51
22 3 48 51 52
23 3 51 52 53
24 1 52 53 56
25 1 53 56 60
26 1 56 60 63
27 1 60 63 65
28 4 63 65 66
29 1 65 66 68
30 1 66 68 70
31 3 68 70 72
32 3 70 72 76
33 3 72 76 77
34 3 76 77 79
35 3 77 79 83
36 3 79 83 84
37 3 83 84 87
38 3 84 87 90
39 3 87 90 92
40 3 90 92 93
41 3 92 93 95
42 1 93 95 96
43 3 95 96 98
44 3 96 98 99
45 3 98 99 103
46 1 99 103 105
47 1 103 105 109
48 1 105 109 111
49 1 109 111 113
50 2 111 113 114
51 2 113 114 116
52 2 114 116 119
53 1 116 119 121
54 1 119 121 124
55 1 121 124 125
56 1 124 125 127
57 1 125 127 129
58 1 127 129 134
59 1 129 134 137
60 4 134 137 139
61 2 137 139 141
62 2 139 141 143
63 2 141 143 145
64 2 143 145 147
65 2 145 147 149
66 3 147 149 153
67 3 149 153 155
68 3 153 155 157
69 3 155 157 159
70 5 157 159 161
71 5 159 161 164
72 2 161 164 167
73 4 164 167 171
74 4 167 171 173
75 3 171 173 175
76 3 173 175 176
77 3 175 176 178
78 1 176 178 181
79 1 178 181 183
80 1 181 183 185
81 1 183 185 189
82 1 185 189 190
83 1 189 190 191
84 1 190 191 193
85 1 191 193 196
86 1 193 196 199
87 4 196 199 202
88 2 199 202 204
89 2 202 204 206
90 2 204 206 209
91 2 206 209 211
92 2 209 211 213
93 2 211 213 215
94 2 213 215 217
95 2 215 217 218
96 2 217 218 222
97 2 218 222 224
98 2 222 224 227
99 2 224 227 230
100 2 227 230 231
101 2 230 231 233
102 1 231 233 235
103 6 1 2 3
104 6 2 4 5
105 6 4 6 7
106 6 6 8 9
107 6 11 12 13
108 6 12 15 16
109 6 15 18 19
110 6 18 20 21
111 6 20 24 25
112 6 24 26 27
113 6 26 28 29
114 6 28 31 32
115 6 33 34 35
116 6 34 36 37
117 6 36 38 39
118 6 38 42 43
119 6 42 44 45
120 6 44 46 47
121 6 46 48 49
122 6 52 53 54
123 6 53 56 57
124 6 56 60 61
125 6 60 63 64
126 6 65 66 67
127 6 66 68 69
128 6 68 70 71
129 6 70 72 73
130 6 76 77 78
131 6 77 79 80
132 6 83 84 85
133 6 84 87 88
134 6 87 90 91
135 6 92 93 94
136 6 95 96 97
137 6 98 99 100
138 6 99 103 104
139 6 103 105 106
140 6 105 109 110
141 6 109 111 112
142 6 113 114 115
143 6 114 116 117
144 6 116 119 120
145 6 119 121 122
146 6 124 125 126
147 6 125 127 128
148 6 127 129 130
149 6 129 134 135
150 6 134 137 138
151 6 137 139 140
152 6 139 141 142
153 6 141 143 144
154 6 143 145 146
155 6 145 147 148
156 6 147 149 150
157 6 149 153 154
158 6 153 155 156
159 6 155 157 158
160 6 157 159 160
161 6 159 161 162
162 6 161 164 165
163 6 164 167 168
164 6 167 171 172
165 6 171 173 174
166 6 175 176 177
167 6 176 178 179
168 6 178 181 182
169 6 181 183 184
170 6 183 185 186
171 6 190 191 192
172 6 191 193 194
173 6 193 196 197
174 6 196 199 200
175 6 199 202 203
176 6 202 204 205
177 6 204 206 207
178 6 206 209 210
179 6 209 211 212
180 6 211 213 214
181 6 213 215 216
182 6 217 218 219
183 6 218 222 223
184 6 222 224 225
185 6 224 227 228
186 6 230 231 232
187 6 231 233 234
188 6 233 235 236
189 7 8 9 10
190 7 12 13 14
191 7 15 16 17
192 8 20 21 22
193 8 20 21 23
194 7 28 29 30
195 8 38 39 40
196 8 38 39 41
197 7 48 49 50
198 7 53 54 55
199 8 56 57 58
200 8 56 57 59
201 7 60 61 62
202 8 72 73 74
203 8 72 73 75
204 8 79 80 81
205 8 79 80 82
206 7 84 85 86
207 7 87 88 89
208 8 99 100 101
209 8 99 100 102
210 8 105 106 107
211 8 105 106 108
212 7 116 117 118
213 7 121 122 123
214 9 129 130 131
215 10 129 130 132
216 7 134 135 136
217 8 149 150 151
218 8 149 150 152
219 7 161 162 163
220 7 164 165 166
221 8 167 168 169
222 8 167 168 170
223 7 178 179 180
224 8 185 186 187
225 8 185 186 188
226 7 193 194 195
227 7 196 197 198
228 7 199 200 201
229 7 206 207 208
230 8 218 219 220
231 8 218 219 221
232 7 224 225 226
233 7 227 228 229

Dihedrals

1 1 4 6 8 11
2 1 6 8 11 12
3 1 8 11 12 15
4 1 11 12 15 18
5 1 12 15 18 20
6 1 15 18 20 24
7 1 18 20 24 26
8 1 20 24 26 28
9 1 111 113 114 116
10 1 113 114 116 119
11 1 137 139 141 143
12 1 139 141 143 145
13 1 141 143 145 147
14 1 143 145 147 149
15 1 159 161 164 167
16 1 199 202 204 206
17 1 202 204 206 209
18 1 204 206 209 211
19 1 206 209 211 213
20 1 209 211 213 215
21 1 211 213 215 217
22 1 213 215 217 218
23 1 215 217 218 222
24 1 217 218 222 224
25 1 218 222 224 227
26 1 222 224 227 230
27 1 224 227 230 231
28 1 227 230 231 233

Impropers

1 1 20 22 23 21
2 1 38 40 41 39
3 1 56 58 59 57
4 1 72 74 75 73
5 1 79 81 82 80
6 1 99 101 102 100
7 1 105 107 108 106
8 1 129 131 132 130
9 2 130 131 133 132
10 1 149 151 152 150
11 1 167 169 170 168
12 1 185 187 188 186
13 1 218 220 221 219

