comment

236 atoms
248 bonds
233 angles
28 dihedrals
13 impropers

17 atom types
17 bond types
10 angle types
1 dihedral types
2 improper types

-40.5 40.5 xlo xhi
-40.5 40.5 ylo yhi
-190.0 190.0 zlo zhi

Masses

1 72.0
2 72.0
3 72.0
4 72.0
5 72.0
6 72.0
7 72.0
8 72.0
9 72.0
10 45.0
11 72.0
12 72.0
13 72.0
14 45.0
15 45.0
16 72.0
17 45.0

PairIJ Coeffs

1 1 1.19503 4.699999999999999
1 2 1.3384336 4.699999999999999
1 3 1.3384336 4.699999999999999
1 4 0.956024 4.699999999999999
1 5 0.478012 4.699999999999999
1 6 0.5497137999999999 4.699999999999999
1 7 0.836521 4.699999999999999
1 8 0.478012 4.699999999999999
1 9 1.19503 4.699999999999999
1 10 0.7409186 4.699999999999999
1 11 1.3384336 4.699999999999999
1 12 1.19503 4.699999999999999
1 13 0.7409186 4.699999999999999
1 14 0.6453162 4.699999999999999
1 15 1.19503 4.699999999999999
1 16 1.19503 4.699999999999999
1 17 0.956024 4.699999999999999
2 2 1.3384336 4.699999999999999
2 3 1.3384336 4.699999999999999
2 4 1.19503 4.699999999999999
2 5 0.5497137999999999 4.699999999999999
2 6 0.6453162 4.699999999999999
2 7 0.836521 4.699999999999999
2 8 0.478012 4.699999999999999
2 9 1.19503 4.699999999999999
2 10 0.7409186 4.699999999999999
2 11 1.3384336 4.699999999999999
2 12 1.19503 4.699999999999999
2 13 0.7409186 4.699999999999999
2 14 0.6453162 4.699999999999999
2 15 1.3384336 4.699999999999999
2 16 1.3384336 4.699999999999999
2 17 1.19503 4.699999999999999
3 3 1.19503 4.699999999999999
3 4 1.19503 4.699999999999999
3 5 0.478012 4.699999999999999
3 6 0.5497137999999999 4.699999999999999
3 7 0.836521 4.699999999999999
3 8 0.478012 4.699999999999999
3 9 0.956024 4.699999999999999
3 10 0.7409186 4.699999999999999
3 11 1.3384336 4.699999999999999
3 12 1.19503 4.699999999999999
3 13 0.7409186 4.699999999999999
3 14 0.6453162 4.699999999999999
3 15 1.19503 4.699999999999999
3 16 1.19503 4.699999999999999
3 17 1.19503 4.699999999999999
4 4 0.956024 4.699999999999999
4 5 0.6453162 4.699999999999999
4 6 0.6453162 4.699999999999999
4 7 0.836521 4.699999999999999
4 8 0.6453162 4.699999999999999
4 9 1.075527 4.699999999999999
4 10 0.836521 4.699999999999999
4 11 0.956024 4.699999999999999
4 12 1.075527 4.699999999999999
4 13 0.836521 4.699999999999999
4 14 0.7409186 4.699999999999999
4 15 1.075527 4.699999999999999
4 16 1.075527 4.699999999999999
4 17 0.956024 4.699999999999999
5 5 0.836521 4.699999999999999
5 6 0.836521 4.699999999999999
5 7 0.7409186 4.699999999999999
5 8 0.836521 4.699999999999999
5 9 0.6453162 4.699999999999999
5 10 0.7409186 4.699999999999999
5 11 0.5497137999999999 4.699999999999999
5 12 0.6453162 4.699999999999999
5 13 0.7409186 4.699999999999999
5 14 0.7409186 4.699999999999999
5 15 0.7409186 4.699999999999999
5 16 0.7409186 4.699999999999999
5 17 0.6453162 4.699999999999999
6 6 0.836521 4.699999999999999
6 7 0.836521 4.699999999999999
6 8 0.836521 4.699999999999999
6 9 0.6453162 4.699999999999999
6 10 0.836521 4.699999999999999
6 11 0.6453162 4.699999999999999
6 12 0.6453162 4.699999999999999
6 13 0.836521 4.699999999999999
6 14 0.836521 4.699999999999999
6 15 0.836521 4.699999999999999
6 16 0.836521 4.699999999999999
6 17 0.6453162 4.699999999999999
7 7 0.836521 4.699999999999999
7 8 0.6453162 4.699999999999999
7 9 0.836521 4.699999999999999
7 10 0.836521 4.699999999999999
7 11 0.836521 4.699999999999999
7 12 0.836521 4.699999999999999
7 13 0.836521 4.699999999999999
7 14 0.836521 4.699999999999999
7 15 0.956024 4.699999999999999
7 16 0.956024 4.699999999999999
7 17 0.836521 4.699999999999999
8 8 0.836521 4.699999999999999
8 9 0.6453162 4.699999999999999
8 10 0.7409186 4.699999999999999
8 11 0.478012 4.699999999999999
8 12 0.6453162 4.699999999999999
8 13 0.7409186 4.699999999999999
8 14 0.7409186 4.699999999999999
8 15 0.6453162 4.699999999999999
8 16 0.6453162 4.699999999999999
8 17 0.6453162 4.699999999999999
9 9 0.956024 4.699999999999999
9 10 0.836521 4.699999999999999
9 11 0.956024 4.699999999999999
9 12 1.075527 4.699999999999999
9 13 0.836521 4.699999999999999
9 14 0.7409186 4.699999999999999
9 15 1.075527 4.699999999999999
9 16 1.075527 4.699999999999999
9 17 1.075527 4.699999999999999
10 10 0.62739075 4.3
10 11 0.7409186 4.699999999999999
10 12 0.836521 4.699999999999999
10 13 0.836521 4.699999999999999
10 14 0.62739075 4.3
10 15 0.62739075 4.3
10 16 0.836521 4.699999999999999
10 17 0.62739075 4.3
11 11 1.19503 4.699999999999999
11 12 0.956024 4.699999999999999
11 13 0.7409186 4.699999999999999
11 14 0.6453162 4.699999999999999
11 15 1.075527 4.699999999999999
11 16 1.075527 4.699999999999999
11 17 0.956024 4.699999999999999
12 12 1.075527 4.699999999999999
12 13 0.836521 4.699999999999999
12 14 0.7409186 4.699999999999999
12 15 1.075527 4.699999999999999
12 16 1.075527 4.699999999999999
12 17 1.075527 4.699999999999999
13 13 0.836521 4.699999999999999
13 14 0.836521 4.699999999999999
13 15 0.836521 4.699999999999999
13 16 0.836521 4.699999999999999
13 17 0.836521 4.699999999999999
14 14 0.62739075 4.3
14 15 0.62739075 4.3
14 16 0.836521 4.699999999999999
14 17 0.5556889500000001 4.3
15 15 0.80664525 4.3
15 16 1.075527 4.699999999999999
15 17 0.80664525 4.3
16 16 1.075527 4.699999999999999
16 17 1.075527 4.699999999999999
17 17 0.7170179999999999 4.3

Bond Coeffs

1 1.4937875 3.5
2 8.962725 3.2
3 5.97515 4.0
4 5.97515 3.3000000000000003
5 5.97515 2.8000000000000003
6 8.962725 3.1
7 8.962725 3.0
8 5.97515 3.2
9 8.962725 3.3000000000000003
10 5.97515 3.4000000000000004
11 5.97515 3.0
12 2.987575 4.0
13 11.9503 3.3000000000000003
14 11.9503 3.1
15 11.9503 2.6500000000000004
16 11.9503 2.7
17 11.9503 2.6

Angle Coeffs

1 2.39006 127
2 83.6521 96
3 2.39006 100
4 2.39006 130
5 11.9503 98
6 2.987575 100
7 2.987575 180
8 5.97515 150
9 5.97515 210
10 5.97515 90

Dihedral Coeffs

1 95.6024 1 -120 0

Improper Coeffs

1 5.97515 0
2 23.9006 0

Atoms

1 1 1 1.0000 1.2549999 -0.027 -48.818
2 1 2 0.0000 0.0262599 0.217449 -50.798702
3 1 3 -1.0000 -1.46173 -0.598781 -53.283
4 1 4 0.0000 1.7348399 2.16404 -54.295303
5 1 5 0.0000 2.67448 0.572973 -56.1873
6 1 4 0.0000 1.72188 5.43777 -54.818604
7 1 3 -1.0000 -1.84111 5.9447904 -55.8392
8 1 4 0.0000 4.62953 5.9380198 -56.5799
9 1 6 0.0000 7.1570897 4.22463 -55.858597
10 1 1 1.0000 7.6015196 1.69846 -56.1001
11 1 4 0.0000 3.87504 4.73392 -59.503597
12 1 7 0.0000 1.48911 7.00041 -60.4361
13 1 6 0.0000 -1.9656401 6.84667 -60.8134
14 1 1 1.0000 -4.12196 5.9620304 -60.226204
15 1 7 0.0000 3.48595 9.83092 -59.9161
16 1 6 0.0000 2.35437 11.109 -57.3686
17 1 1 1.0000 -0.257804 10.373 -55.9931
18 1 7 0.0000 6.13141 9.30999 -61.9063
19 1 8 0.0000 8.37952 8.00522 -60.8766
20 1 9 0.0000 4.76419 9.87803 -64.688705
21 1 10 0.0000 5.5427003 9.48628 -67.5352
22 1 10 0.0000 5.04634 9.4262705 -70.0782
23 1 10 0.0000 7.39218 9.04655 -69.2255
24 1 9 0.0000 3.62977 12.7197 -64.0068
25 1 5 0.0000 1.53229 14.320101 -64.0141
26 1 9 0.0000 6.45502 14.165 -63.2369
27 1 11 0.0000 5.0365 17.5574 -65.130905
28 1 9 0.0000 7.86701 13.541599 -65.998505
29 1 6 0.0000 9.92109 11.1695 -65.4842
30 1 1 1.0000 11.2851 8.5259 -65.0483
31 1 12 0.0000 6.6977 13.993501 -68.9787
32 1 13 0.0000 8.75353 14.0906 -71.4365
33 1 7 0.0000 4.2917004 14.5225 -69.4355
34 1 12 0.0000 1.20412 12.559 -68.5083
35 1 11 0.0000 -0.832327 15.7482 -68.3985
36 1 12 0.0000 0.0910326 12.101999 -71.6687
37 1 13 0.0000 -1.11746 15.1641 -71.8455
38 1 2 0.0000 -0.87498003 8.36518 -71.6668
39 1 14 0.0000 1.82325 7.28795 -72.5728
40 1 15 0.0000 3.78284 5.3974905 -72.5358
41 1 15 0.0000 3.96443 7.3701696 -73.8425
42 1 2 0.0000 -4.44308 7.84596 -71.3094
43 1 16 0.0000 -5.48928 8.12546 -73.8063
44 1 2 0.0000 -5.0949802 7.04077 -68.2768
45 1 5 0.0000 -3.0698001 5.5399 -67.3182
46 1 2 0.0000 -7.29693 6.25149 -65.167
47 1 3 -1.0000 -5.85095 9.346251 -63.1083
48 1 12 0.0000 -11.240999 4.0645304 -64.6176
49 1 6 0.0000 -12.1119995 2.63766 -61.2916
50 1 1 1.0000 -11.3958 1.7920899 -58.592
51 1 12 0.0000 -12.6886 5.5447903 -67.7884
52 1 2 0.0000 -10.1999 7.7574997 -67.529
53 1 2 0.0000 -10.2004 10.6888 -66.3929
54 1 6 0.0000 -11.0131 9.19561 -62.9438
55 1 1 1.0000 -9.77614 7.5331097 -61.1964
56 1 2 0.0000 -8.75408 12.4174 -70.4021
57 1 14 0.0000 -9.65957 9.63891 -71.7426
58 1 15 0.0000 -10.1071 7.03036 -72.5997
59 1 15 0.0000 -12.1393 8.623179 -71.918304
60 1 2 0.0000 -5.61214 12.8808 -71.676605
61 1 6 0.0000 -4.17137 12.1459 -68.828804
62 1 1 1.0000 -3.4858 11.5137005 -66.1272
63 1 2 0.0000 -3.51164 12.5041 -75.3796
64 1 16 0.0000 -2.94332 15.1649 -76.690895
65 1 2 0.0000 -0.93034697 10.18 -76.5493
66 1 11 0.0000 0.278898 8.045529 -77.1186
67 1 6 0.0000 1.54053 6.3182096 -79.2983
68 1 2 0.0000 -1.1792101 4.84606 -75.1973
69 1 2 0.0000 -3.77789 4.52318 -77.0323
70 1 2 0.0000 -2.05019 2.77267 -72.406204
71 1 8 0.0000 0.052709997 2.82843 -70.1268
72 1 12 0.0000 -5.6394 2.51161 -74.1956
73 1 14 0.0000 -7.44022 3.55872 -71.6475
74 1 15 0.0000 -9.642509 2.9808302 -70.2983
75 1 15 0.0000 -7.2761 3.01097 -69.3844
76 1 12 0.0000 -7.4734097 -0.800929 -73.9104
77 1 2 0.0000 -5.6234403 -2.41814 -70.9886
78 1 8 0.0000 -4.0794797 -0.565791 -68.752
79 1 12 0.0000 -6.1278496 -5.6515 -70.3189
80 1 10 0.0000 -4.7115097 -5.91814 -67.4102
81 1 10 0.0000 -2.8073702 -5.8380504 -65.7145
82 1 10 0.0000 -4.9485497 -7.10177 -64.959305
83 1 12 0.0000 -5.8508596 -8.01141 -73.1051
84 1 2 0.0000 -5.51899 -6.7851596 -76.0221
85 1 7 0.0000 -4.06742 -4.09326 -75.3509
86 1 1 1.0000 -2.7029202 -1.16729 -75.2329
87 1 2 0.0000 -3.3899 -7.2977 -78.7323
88 1 6 0.0000 -0.969697 -9.51747 -79.7897
89 1 1 1.0000 0.164235 -9.51538 -82.6817
90 1 12 0.0000 -2.00601 -4.3010397 -79.8667
91 1 16 0.0000 -0.11809 -3.67676 -78.7668
92 1 12 0.0000 -4.82552 -3.4489598 -82.34531
93 1 2 0.0000 -5.76325 -1.21258 -79.7811
94 1 11 0.0000 -8.86703 -4.04172 -78.2653
95 1 11 0.0000 -7.9077 1.14791 -79.7117
96 1 7 0.0000 -10.0307 3.40947 -77.208
97 1 6 0.0000 -11.7091 2.10903 -75.194
98 1 12 0.0000 -8.13451 6.1738997 -77.3701
99 1 2 0.0000 -7.1834497 6.1757097 -80.740295
100 1 10 0.0000 -7.2761497 8.02759 -83.1474
101 1 10 0.0000 -5.8200903 8.38278 -85.449
102 1 10 0.0000 -6.96881 10.577299 -84.1848
103 1 2 0.0000 -4.76472 3.7799098 -82.3325
104 1 16 0.0000 -5.4445 2.08416 -84.221
105 1 2 0.0000 -2.04514 5.5359 -82.4939
106 1 14 0.0000 -2.90373 8.06081 -80.7545
107 1 14 0.0000 -4.5265903 9.93187 -79.1785
108 1 15 0.0000 -3.2064 10.9938 -80.9708
109 1 2 0.0000 -0.083570495 4.96579 -86.1559
110 1 16 0.0000 -1.7248701 6.1136003 -88.1417
111 1 4 0.0000 1.86154 2.45275 -85.99341
112 1 3 -1.0000 2.21177 1.62837 -88.733795
113 1 7 0.0000 2.354 2.28848 -82.85829
114 1 12 0.0000 -0.685837 0.513272 -82.0603
115 1 2 0.0000 -0.59782 1.26488 -79.2633
116 1 12 0.0000 -0.0658467 -2.09177 -84.1817
117 1 6 0.0000 -2.19164 -1.12334 -86.4662
118 1 1 1.0000 -2.17213 0.425159 -88.144104
119 1 9 0.0000 2.72785 -3.31076 -83.073395
120 1 2 0.0000 3.93253 -2.95812 -86.339
121 1 2 0.0000 5.1530404 -5.13912 -81.56081
122 1 6 0.0000 8.55883 -4.51195 -80.85
123 1 1 1.0000 10.9907 -5.40617 -78.6779
124 1 2 0.0000 4.15571 -7.5212903 -79.2619
125 1 2 0.0000 2.24577 -7.3823795 -76.7016
126 1 8 0.0000 2.69639 -10.7261 -76.2016
127 1 2 0.0000 -0.234936 -7.52861 -74.4777
128 1 16 0.0000 -1.4472901 -9.86832 -75.2117
129 1 2 0.0000 -0.81372094 -8.52849 -70.4123
130 1 14 0.0000 -1.1304901 -5.03401 -70.434
131 1 17 0.0000 -0.242602 -2.7184 -71.286
132 1 10 0.0000 0.321725 -4.81121 -72.6926
133 1 10 0.0000 1.23103 -2.70666 -73.5371
134 1 2 0.0000 0.111469 -9.24705 -67.1844
135 1 6 0.0000 2.67894 -11.5898 -67.223404
136 1 1 1.0000 4.84838 -11.8815 -65.302704
137 1 4 0.0000 2.44476 -6.86517 -66.347
138 1 3 -1.0000 5.2700596 -7.8158097 -62.8694
139 1 4 0.0000 5.08807 -7.71779 -67.7848
140 1 3 -1.0000 6.01886 -7.99896 -63.330597
141 1 4 0.0000 4.57534 -6.24836 -70.7134
142 1 16 0.0000 4.2248497 -8.11863 -72.389496
143 1 12 0.0000 4.44935 -3.3320098 -69.2511
144 1 8 0.0000 3.71403 -0.22429699 -69.8929
145 1 9 0.0000 7.83114 -3.3474698 -68.5888
146 1 13 0.0000 9.71824 -5.86087 -66.5579
147 1 9 0.0000 8.86853 -3.62781 -71.6431
148 1 3 -1.0000 11.8639 -4.14023 -74.3546
149 1 9 0.0000 7.63696 -0.408718 -72.4346
150 1 14 0.0000 5.15252 0.60665 -74.398796
151 1 14 0.0000 4.04972 2.4912999 -76.2276
152 1 15 0.0000 2.61462 1.5366199 -74.6444
153 1 12 0.0000 9.41148 1.58067 -71.6118
154 1 8 0.0000 7.3074503 3.5490098 -69.9193
155 1 12 0.0000 12.4605 0.94665897 -72.356804
156 1 3 -1.0000 15.8277 0.0147254 -70.7783
157 1 2 0.0000 13.055 3.07373 -74.3552
158 1 2 0.0000 15.603 4.57781 -73.8035
159 1 7 0.0000 10.036301 3.32269 -75.8855
160 1 6 0.0000 8.11878 4.89113 -74.608696
161 1 12 0.0000 11.3267 3.0555701 -78.6401
162 1 6 0.0000 13.1849 6.0700502 -78.0317
163 1 1 1.0000 12.2829 8.55575 -78.7039
164 1 12 0.0000 11.406601 -0.38555 -78.306
165 1 6 0.0000 14.830199 -0.17797399 -77.9046
166 1 1 1.0000 15.700001 -1.12788 -75.251
167 1 12 0.0000 8.54388 -0.77711904 -77.8258
168 1 14 0.0000 7.57914 -3.19561 -76.3832
169 1 14 0.0000 4.88597 -3.8578 -75.7599
170 1 15 0.0000 7.2357397 -5.49053 -75.5249
171 1 2 0.0000 6.44094 0.455518 -79.6119
172 1 8 0.0000 3.8530498 -0.77196 -79.2475
173 1 7 0.0000 6.67782 0.317498 -83.492096
174 1 6 0.0000 8.6082 -1.4489601 -85.124504
175 1 12 0.0000 8.62261 2.9189599 -82.9877
176 1 2 0.0000 5.75175 4.26895 -80.1054
177 1 16 0.0000 6.64275 6.1879897 -78.8218
178 1 2 0.0000 4.89878 6.5813 -83.323296
179 1 6 0.0000 6.3783197 5.42928 -85.7426
180 1 1 1.0000 6.5249596 3.4924998 -87.35
181 1 2 0.0000 2.44941 8.66838 -83.567
182 1 13 0.0000 2.1930299 9.07088 -87.217705
183 1 2 0.0000 2.58604 10.774601 -80.8811
184 1 8 0.0000 1.5637801 13.568701 -81.19759
185 1 2 0.0000 4.4995003 10.742901 -78.3517
186 1 10 0.0000 3.3980799 13.5466 -76.9423
187 1 10 0.0000 4.32543 15.806299 -75.367
188 1 10 0.0000 1.85003 15.535299 -75.7452
189 1 11 0.0000 7.61399 10.47 -76.092
190 1 2 0.0000 9.14841 9.6713505 -74.2427
191 1 2 0.0000 11.2253 7.61354 -71.5619
192 1 8 0.0000 12.6783 10.078699 -69.7161
193 1 2 0.0000 11.742801 5.01483 -68.7787
194 1 6 0.0000 14.7748995 5.18147 -69.139496
195 1 1 1.0000 16.874401 3.8755398 -68.5383
196 1 2 0.0000 15.7665 1.16687 -65.9691
197 1 6 0.0000 17.945 2.46879 -63.6039
198 1 1 1.0000 17.4145 4.24229 -61.1939
199 1 4 0.0000 14.3863 -1.02002 -63.551502
200 1 6 0.0000 11.925401 -3.8372498 -62.2018
201 1 1 1.0000 9.033259 -4.9801 -61.718403
202 1 4 0.0000 12.9881 0.886363 -61.5988
203 1 16 0.0000 12.027 0.178682 -59.3675
204 1 4 0.0000 12.2813 3.1809602 -63.9981
205 1 3 -1.0000 15.1008 6.0752397 -64.5905
206 1 4 0.0000 10.4777 0.933709 -65.776
207 1 7 0.0000 12.100901 -1.12253 -67.673004
208 1 1 1.0000 13.0729 -3.22852 -69.657
209 1 7 0.0000 8.90868 -0.14613299 -63.2765
210 1 3 -1.0000 7.36625 -1.60674 -59.649803
211 1 7 0.0000 7.28197 2.5239398 -62.2637
212 1 3 -1.0000 6.18128 -0.223304 -59.8686
213 1 7 0.0000 5.80399 2.79011 -65.123
214 1 8 0.0000 6.9372897 5.6767397 -65.6681
215 1 7 0.0000 4.32407 0.0477862 -65.0974
216 1 8 0.0000 5.07397 -2.81757 -64.9405
217 1 13 0.0000 2.4736001 0.75528896 -62.2868
218 1 7 0.0000 0.736585 3.12722 -63.617203
219 1 14 0.0000 1.2901101 5.44688 -65.5412
220 1 14 0.0000 2.33869 6.6313796 -68.0541
221 1 15 0.0000 0.780398 7.89329 -65.9563
222 1 7 0.0000 -0.671568 0.85756505 -65.647896
223 1 8 0.0000 0.31183 -2.1663 -66.676
224 1 7 0.0000 -1.81933 -0.925377 -63.0473
225 1 6 0.0000 0.49642998 -3.6307902 -62.2092
226 1 1 1.0000 3.54385 -4.14115 -60.6892
227 1 9 0.0000 -3.1646001 1.64544 -61.648003
228 1 6 0.0000 -2.8941898 1.6999 -58.2126
229 1 1 1.0000 -4.15039 1.87968 -55.9405
230 1 7 0.0000 -5.30921 2.20227 -64.1001
231 1 9 0.0000 -6.80964 -0.505659 -64.3163
232 1 16 0.0000 -8.50773 -1.20823 -66.0888
233 1 9 0.0000 -7.9816904 -0.42821002 -61.1797
234 1 2 0.0000 -6.41778 -1.75893 -58.5405
235 1 3 -1.0000 -7.44745 2.78597 -60.5199
236 1 3 -1.0000 -7.8237495 4.66503 -57.747997

Bonds

1 1 1 2
2 1 31 33
3 1 33 34
4 1 34 36
5 1 36 38
6 1 38 42
7 1 42 44
8 1 44 46
9 1 46 48
10 1 48 51
11 1 51 52
12 1 52 53
13 1 53 56
14 1 56 60
15 1 60 63
16 1 63 65
17 1 65 66
18 1 66 68
19 1 68 70
20 1 70 72
21 1 72 76
22 1 76 77
23 1 77 79
24 1 79 83
25 1 83 84
26 1 84 87
27 1 87 90
28 1 90 92
29 1 92 93
30 1 93 95
31 1 95 96
32 1 96 98
33 1 98 99
34 1 99 103
35 1 103 105
36 1 105 109
37 1 121 124
38 1 124 125
39 1 125 127
40 1 127 129
41 1 129 134
42 1 153 155
43 1 155 157
44 1 171 173
45 1 173 175
46 1 175 176
47 1 176 178
48 1 178 181
49 1 181 183
50 1 183 185
51 1 185 189
52 1 189 190
53 1 190 191
54 1 191 193
55 1 193 196
56 2 2 3
57 3 6 7
58 4 8 9
59 5 9 10
60 4 12 13
61 5 13 14
62 4 15 16
63 5 16 17
64 6 20 21
65 3 26 27
66 4 28 29
67 5 29 30
68 6 31 32
69 3 34 35
70 6 36 37
71 2 38 39
72 3 46 47
73 4 48 49
74 5 49 50
75 4 53 54
76 5 54 55
77 2 56 57
78 4 60 61
79 5 61 62
80 7 66 67
81 8 68 69
82 9 70 71
83 2 72 73
84 9 77 78
85 6 79 80
86 4 84 85
87 10 85 86
88 4 87 88
89 5 88 89
90 3 93 94
91 7 96 97
92 6 99 100
93 8 105 106
94 2 111 112
95 8 114 115
96 4 116 117
97 5 117 118
98 8 119 120
99 4 121 122
100 5 122 123
101 11 129 130
102 4 134 135
103 5 135 136
104 3 137 138
105 3 139 140
106 9 143 144
107 12 145 146
108 3 147 148
109 8 149 150
110 9 153 154
111 3 155 156
112 8 157 158
113 7 159 160
114 4 161 162
115 5 162 163
116 4 164 165
117 5 165 166
118 8 167 168
119 7 173 174
120 4 178 179
121 5 179 180
122 12 181 182
123 6 185 186
124 4 193 194
125 5 194 195
126 4 196 197
127 5 197 198
128 4 199 200
129 5 200 201
130 3 204 205
131 4 206 207
132 10 207 208
133 3 209 210
134 2 211 212
135 9 213 214
136 8 218 219
137 9 222 223
138 4 224 225
139 5 225 226
140 4 227 228
141 5 228 229
142 8 233 234
143 3 235 236
144 13 2 4
145 14 4 6
146 14 6 8
147 14 8 11
148 14 11 12
149 14 12 15
150 14 15 18
151 14 18 20
152 14 20 24
153 14 24 26
154 14 26 28
155 13 28 31
156 13 109 111
157 14 111 113
158 14 113 114
159 14 114 116
160 14 116 119
161 13 119 121
162 13 134 137
163 14 137 139
164 14 139 141
165 14 141 143
166 14 143 145
167 14 145 147
168 14 147 149
169 13 149 153
170 13 157 159
171 14 159 161
172 14 161 164
173 14 164 167
174 13 167 171
175 13 196 199
176 14 199 202
177 14 202 204
178 14 204 206
179 14 206 209
180 14 209 211
181 14 211 213
182 14 213 215
183 14 215 217
184 14 217 218
185 14 218 222
186 14 222 224
187 14 224 227
188 14 227 230
189 14 230 231
190 14 231 233
191 13 233 235
192 15 4 5
193 14 18 19
194 16 21 22
195 16 21 23
196 16 22 23
197 15 24 25
198 16 39 40
199 16 39 41
200 16 40 41
201 17 42 43
202 15 44 45
203 16 57 58
204 16 57 59
205 16 58 59
206 17 63 64
207 16 73 74
208 16 73 75
209 16 74 75
210 16 80 81
211 16 80 82
212 16 81 82
213 17 90 91
214 16 100 101
215 16 100 102
216 16 101 102
217 17 103 104
218 16 106 107
219 16 106 108
220 16 107 108
221 17 109 110
222 14 125 126
223 17 127 128
224 16 130 131
225 16 130 132
226 16 131 132
227 16 131 133
228 16 132 133
229 17 141 142
230 16 150 151
231 16 150 152
232 16 151 152
233 16 168 169
234 16 168 170
235 16 169 170
236 14 171 172
237 17 176 177
238 14 183 184
239 16 186 187
240 16 186 188
241 16 187 188
242 14 191 192
243 17 202 203
244 14 215 216
245 16 219 220
246 16 219 221
247 16 220 221
248 17 231 232

Angles

1 1 1 2 4
2 1 2 4 6
3 2 4 6 8
4 2 6 8 11
5 2 8 11 12
6 2 11 12 15
7 2 12 15 18
8 2 15 18 20
9 2 18 20 24
10 2 20 24 26
11 2 24 26 28
12 3 26 28 31
13 3 28 31 33
14 3 31 33 34
15 3 33 34 36
16 3 34 36 38
17 3 36 38 42
18 1 38 42 44
19 1 42 44 46
20 3 44 46 48
21 3 46 48 51
22 3 48 51 52
23 3 51 52 53
24 1 52 53 56
25 1 53 56 60
26 1 56 60 63
27 1 60 63 65
28 4 63 65 66
29 1 65 66 68
30 1 66 68 70
31 3 68 70 72
32 3 70 72 76
33 3 72 76 77
34 3 76 77 79
35 3 77 79 83
36 3 79 83 84
37 3 83 84 87
38 3 84 87 90
39 3 87 90 92
40 3 90 92 93
41 3 92 93 95
42 1 93 95 96
43 3 95 96 98
44 3 96 98 99
45 3 98 99 103
46 1 99 103 105
47 1 103 105 109
48 1 105 109 111
49 1 109 111 113
50 2 111 113 114
51 2 113 114 116
52 2 114 116 119
53 1 116 119 121
54 1 119 121 124
55 1 121 124 125
56 1 124 125 127
57 1 125 127 129
58 1 127 129 134
59 1 129 134 137
60 4 134 137 139
61 2 137 139 141
62 2 139 141 143
63 2 141 143 145
64 2 143 145 147
65 2 145 147 149
66 3 147 149 153
67 3 149 153 155
68 3 153 155 157
69 3 155 157 159
70 5 157 159 161
71 5 159 161 164
72 2 161 164 167
73 4 164 167 171
74 4 167 171 173
75 3 171 173 175
76 3 173 175 176
77 3 175 176 178
78 1 176 178 181
79 1 178 181 183
80 1 181 183 185
81 1 183 185 189
82 1 185 189 190
83 1 189 190 191
84 1 190 191 193
85 1 191 193 196
86 1 193 196 199
87 4 196 199 202
88 2 199 202 204
89 2 202 204 206
90 2 204 206 209
91 2 206 209 211
92 2 209 211 213
93 2 211 213 215
94 2 213 215 217
95 2 215 217 218
96 2 217 218 222
97 2 218 222 224
98 2 222 224 227
99 2 224 227 230
100 2 227 230 231
101 2 230 231 233
102 1 231 233 235
103 6 1 2 3
104 6 2 4 5
105 6 4 6 7
106 6 6 8 9
107 6 11 12 13
108 6 12 15 16
109 6 15 18 19
110 6 18 20 21
111 6 20 24 25
112 6 24 26 27
113 6 26 28 29
114 6 28 31 32
115 6 33 34 35
116 6 34 36 37
117 6 36 38 39
118 6 38 42 43
119 6 42 44 45
120 6 44 46 47
121 6 46 48 49
122 6 52 53 54
123 6 53 56 57
124 6 56 60 61
125 6 60 63 64
126 6 65 66 67
127 6 66 68 69
128 6 68 70 71
129 6 70 72 73
130 6 76 77 78
131 6 77 79 80
132 6 83 84 85
133 6 84 87 88
134 6 87 90 91
135 6 92 93 94
136 6 95 96 97
137 6 98 99 100
138 6 99 103 104
139 6 103 105 106
140 6 105 109 110
141 6 109 111 112
142 6 113 114 115
143 6 114 116 117
144 6 116 119 120
145 6 119 121 122
146 6 124 125 126
147 6 125 127 128
148 6 127 129 130
149 6 129 134 135
150 6 134 137 138
151 6 137 139 140
152 6 139 141 142
153 6 141 143 144
154 6 143 145 146
155 6 145 147 148
156 6 147 149 150
157 6 149 153 154
158 6 153 155 156
159 6 155 157 158
160 6 157 159 160
161 6 159 161 162
162 6 161 164 165
163 6 164 167 168
164 6 167 171 172
165 6 171 173 174
166 6 175 176 177
167 6 176 178 179
168 6 178 181 182
169 6 181 183 184
170 6 183 185 186
171 6 190 191 192
172 6 191 193 194
173 6 193 196 197
174 6 196 199 200
175 6 199 202 203
176 6 202 204 205
177 6 204 206 207
178 6 206 209 210
179 6 209 211 212
180 6 211 213 214
181 6 213 215 216
182 6 217 218 219
183 6 218 222 223
184 6 222 224 225
185 6 224 227 228
186 6 230 231 232
187 6 231 233 234
188 6 233 235 236
189 7 8 9 10
190 7 12 13 14
191 7 15 16 17
192 8 20 21 22
193 8 20 21 23
194 7 28 29 30
195 8 38 39 40
196 8 38 39 41
197 7 48 49 50
198 7 53 54 55
199 8 56 57 58
200 8 56 57 59
201 7 60 61 62
202 8 72 73 74
203 8 72 73 75
204 8 79 80 81
205 8 79 80 82
206 7 84 85 86
207 7 87 88 89
208 8 99 100 101
209 8 99 100 102
210 8 105 106 107
211 8 105 106 108
212 7 116 117 118
213 7 121 122 123
214 9 129 130 131
215 10 129 130 132
216 7 134 135 136
217 8 149 150 151
218 8 149 150 152
219 7 161 162 163
220 7 164 165 166
221 8 167 168 169
222 8 167 168 170
223 7 178 179 180
224 8 185 186 187
225 8 185 186 188
226 7 193 194 195
227 7 196 197 198
228 7 199 200 201
229 7 206 207 208
230 8 218 219 220
231 8 218 219 221
232 7 224 225 226
233 7 227 228 229

Dihedrals

1 1 4 6 8 11
2 1 6 8 11 12
3 1 8 11 12 15
4 1 11 12 15 18
5 1 12 15 18 20
6 1 15 18 20 24
7 1 18 20 24 26
8 1 20 24 26 28
9 1 111 113 114 116
10 1 113 114 116 119
11 1 137 139 141 143
12 1 139 141 143 145
13 1 141 143 145 147
14 1 143 145 147 149
15 1 159 161 164 167
16 1 199 202 204 206
17 1 202 204 206 209
18 1 204 206 209 211
19 1 206 209 211 213
20 1 209 211 213 215
21 1 211 213 215 217
22 1 213 215 217 218
23 1 215 217 218 222
24 1 217 218 222 224
25 1 218 222 224 227
26 1 222 224 227 230
27 1 224 227 230 231
28 1 227 230 231 233

Impropers

1 1 20 22 23 21
2 1 38 40 41 39
3 1 56 58 59 57
4 1 72 74 75 73
5 1 79 81 82 80
6 1 99 101 102 100
7 1 105 107 108 106
8 1 129 131 132 130
9 2 130 131 133 132
10 1 149 151 152 150
11 1 167 169 170 168
12 1 185 187 188 186
13 1 218 220 221 219

