comment

236 atoms
248 bonds
233 angles
28 dihedrals
13 impropers

17 atom types
17 bond types
10 angle types
1 dihedral types
2 improper types

-40.5 40.5 xlo xhi
-40.5 40.5 ylo yhi
-190.0 190.0 zlo zhi

Masses

1 72.0
2 72.0
3 72.0
4 72.0
5 72.0
6 72.0
7 72.0
8 72.0
9 72.0
10 45.0
11 72.0
12 72.0
13 72.0
14 45.0
15 45.0
16 72.0
17 45.0

PairIJ Coeffs

1 1 1.19503 4.699999999999999
1 2 1.3384336 4.699999999999999
1 3 1.3384336 4.699999999999999
1 4 0.956024 4.699999999999999
1 5 0.478012 4.699999999999999
1 6 0.5497137999999999 4.699999999999999
1 7 0.836521 4.699999999999999
1 8 0.478012 4.699999999999999
1 9 1.19503 4.699999999999999
1 10 0.7409186 4.699999999999999
1 11 1.3384336 4.699999999999999
1 12 1.19503 4.699999999999999
1 13 0.7409186 4.699999999999999
1 14 0.6453162 4.699999999999999
1 15 1.19503 4.699999999999999
1 16 1.19503 4.699999999999999
1 17 0.956024 4.699999999999999
2 2 1.3384336 4.699999999999999
2 3 1.3384336 4.699999999999999
2 4 1.19503 4.699999999999999
2 5 0.5497137999999999 4.699999999999999
2 6 0.6453162 4.699999999999999
2 7 0.836521 4.699999999999999
2 8 0.478012 4.699999999999999
2 9 1.19503 4.699999999999999
2 10 0.7409186 4.699999999999999
2 11 1.3384336 4.699999999999999
2 12 1.19503 4.699999999999999
2 13 0.7409186 4.699999999999999
2 14 0.6453162 4.699999999999999
2 15 1.3384336 4.699999999999999
2 16 1.3384336 4.699999999999999
2 17 1.19503 4.699999999999999
3 3 1.19503 4.699999999999999
3 4 1.19503 4.699999999999999
3 5 0.478012 4.699999999999999
3 6 0.5497137999999999 4.699999999999999
3 7 0.836521 4.699999999999999
3 8 0.478012 4.699999999999999
3 9 0.956024 4.699999999999999
3 10 0.7409186 4.699999999999999
3 11 1.3384336 4.699999999999999
3 12 1.19503 4.699999999999999
3 13 0.7409186 4.699999999999999
3 14 0.6453162 4.699999999999999
3 15 1.19503 4.699999999999999
3 16 1.19503 4.699999999999999
3 17 1.19503 4.699999999999999
4 4 0.956024 4.699999999999999
4 5 0.6453162 4.699999999999999
4 6 0.6453162 4.699999999999999
4 7 0.836521 4.699999999999999
4 8 0.6453162 4.699999999999999
4 9 1.075527 4.699999999999999
4 10 0.836521 4.699999999999999
4 11 0.956024 4.699999999999999
4 12 1.075527 4.699999999999999
4 13 0.836521 4.699999999999999
4 14 0.7409186 4.699999999999999
4 15 1.075527 4.699999999999999
4 16 1.075527 4.699999999999999
4 17 0.956024 4.699999999999999
5 5 0.836521 4.699999999999999
5 6 0.836521 4.699999999999999
5 7 0.7409186 4.699999999999999
5 8 0.836521 4.699999999999999
5 9 0.6453162 4.699999999999999
5 10 0.7409186 4.699999999999999
5 11 0.5497137999999999 4.699999999999999
5 12 0.6453162 4.699999999999999
5 13 0.7409186 4.699999999999999
5 14 0.7409186 4.699999999999999
5 15 0.7409186 4.699999999999999
5 16 0.7409186 4.699999999999999
5 17 0.6453162 4.699999999999999
6 6 0.836521 4.699999999999999
6 7 0.836521 4.699999999999999
6 8 0.836521 4.699999999999999
6 9 0.6453162 4.699999999999999
6 10 0.836521 4.699999999999999
6 11 0.6453162 4.699999999999999
6 12 0.6453162 4.699999999999999
6 13 0.836521 4.699999999999999
6 14 0.836521 4.699999999999999
6 15 0.836521 4.699999999999999
6 16 0.836521 4.699999999999999
6 17 0.6453162 4.699999999999999
7 7 0.836521 4.699999999999999
7 8 0.6453162 4.699999999999999
7 9 0.836521 4.699999999999999
7 10 0.836521 4.699999999999999
7 11 0.836521 4.699999999999999
7 12 0.836521 4.699999999999999
7 13 0.836521 4.699999999999999
7 14 0.836521 4.699999999999999
7 15 0.956024 4.699999999999999
7 16 0.956024 4.699999999999999
7 17 0.836521 4.699999999999999
8 8 0.836521 4.699999999999999
8 9 0.6453162 4.699999999999999
8 10 0.7409186 4.699999999999999
8 11 0.478012 4.699999999999999
8 12 0.6453162 4.699999999999999
8 13 0.7409186 4.699999999999999
8 14 0.7409186 4.699999999999999
8 15 0.6453162 4.699999999999999
8 16 0.6453162 4.699999999999999
8 17 0.6453162 4.699999999999999
9 9 0.956024 4.699999999999999
9 10 0.836521 4.699999999999999
9 11 0.956024 4.699999999999999
9 12 1.075527 4.699999999999999
9 13 0.836521 4.699999999999999
9 14 0.7409186 4.699999999999999
9 15 1.075527 4.699999999999999
9 16 1.075527 4.699999999999999
9 17 1.075527 4.699999999999999
10 10 0.62739075 4.3
10 11 0.7409186 4.699999999999999
10 12 0.836521 4.699999999999999
10 13 0.836521 4.699999999999999
10 14 0.62739075 4.3
10 15 0.62739075 4.3
10 16 0.836521 4.699999999999999
10 17 0.62739075 4.3
11 11 1.19503 4.699999999999999
11 12 0.956024 4.699999999999999
11 13 0.7409186 4.699999999999999
11 14 0.6453162 4.699999999999999
11 15 1.075527 4.699999999999999
11 16 1.075527 4.699999999999999
11 17 0.956024 4.699999999999999
12 12 1.075527 4.699999999999999
12 13 0.836521 4.699999999999999
12 14 0.7409186 4.699999999999999
12 15 1.075527 4.699999999999999
12 16 1.075527 4.699999999999999
12 17 1.075527 4.699999999999999
13 13 0.836521 4.699999999999999
13 14 0.836521 4.699999999999999
13 15 0.836521 4.699999999999999
13 16 0.836521 4.699999999999999
13 17 0.836521 4.699999999999999
14 14 0.62739075 4.3
14 15 0.62739075 4.3
14 16 0.836521 4.699999999999999
14 17 0.5556889500000001 4.3
15 15 0.80664525 4.3
15 16 1.075527 4.699999999999999
15 17 0.80664525 4.3
16 16 1.075527 4.699999999999999
16 17 1.075527 4.699999999999999
17 17 0.7170179999999999 4.3

Bond Coeffs

1 1.4937875 3.5
2 8.962725 3.2
3 5.97515 4.0
4 5.97515 3.3000000000000003
5 5.97515 2.8000000000000003
6 8.962725 3.1
7 8.962725 3.0
8 5.97515 3.2
9 8.962725 3.3000000000000003
10 5.97515 3.4000000000000004
11 5.97515 3.0
12 2.987575 4.0
13 11.9503 3.3000000000000003
14 11.9503 3.1
15 11.9503 2.6500000000000004
16 11.9503 2.7
17 11.9503 2.6

Angle Coeffs

1 2.39006 127
2 83.6521 96
3 2.39006 100
4 2.39006 130
5 11.9503 98
6 2.987575 100
7 2.987575 180
8 5.97515 150
9 5.97515 210
10 5.97515 90

Dihedral Coeffs

1 95.6024 1 -120 0

Improper Coeffs

1 5.97515 0
2 23.9006 0

Atoms

1 1 1 1.0000 1.2549999 -0.027 -48.818
2 1 2 0.0000 -0.098494805 0.281702 -51.2459
3 1 3 -1.0000 -1.28122 -0.96602404 -53.344
4 1 4 0.0000 1.7967 2.11602 -54.126602
5 1 5 0.0000 3.20209 0.427442 -55.3944
6 1 4 0.0000 1.7628001 5.3921404 -54.717003
7 1 3 -1.0000 -1.86251 5.89971 -56.008
8 1 4 0.0000 4.39861 5.84187 -56.1581
9 1 6 0.0000 6.84884 3.50131 -55.0739
10 1 1 1.0000 8.12284 2.2918699 -56.7425
11 1 4 0.0000 3.7880502 4.62004 -59.288403
12 1 7 0.0000 1.40397 6.7557697 -60.149597
13 1 6 0.0000 -1.3659 7.08328 -60.7446
14 1 1 1.0000 -4.2153797 6.0237 -59.798798
15 1 7 0.0000 3.36548 9.67219 -59.4566
16 1 6 0.0000 1.95686 11.102099 -56.938
17 1 1 1.0000 -0.24583301 10.3377 -55.700897
18 1 7 0.0000 5.99578 9.24763 -61.495598
19 1 8 0.0000 7.93801 7.1475897 -60.2101
20 1 9 0.0000 4.68886 9.65374 -64.4487
21 1 10 0.0000 4.80587 9.4937 -67.3078
22 1 10 0.0000 4.40916 9.57228 -69.9649
23 1 10 0.0000 6.95303 8.94459 -69.507996
24 1 9 0.0000 3.5219 12.782499 -63.9495
25 1 5 0.0000 1.3211299 14.3342 -63.390396
26 1 9 0.0000 6.47966 14.2411 -63.3501
27 1 11 0.0000 5.22906 17.1497 -65.496
28 1 9 0.0000 7.8732595 13.1721 -65.8247
29 1 6 0.0000 9.621719 10.6311 -65.4393
30 1 1 1.0000 10.9874 8.62975 -64.7049
31 1 12 0.0000 7.23702 13.8209 -68.8777
32 1 13 0.0000 8.51753 13.8713 -71.6588
33 1 7 0.0000 3.4422698 14.541399 -69.2755
34 1 12 0.0000 1.16782 12.621 -68.2685
35 1 11 0.0000 -1.5797999 15.9409 -68.0184
36 1 12 0.0000 -0.0638261 12.400399 -71.6409
37 1 13 0.0000 -0.255772 15.745601 -71.3614
38 1 2 0.0000 -0.82246995 9.232019 -70.8975
39 1 14 0.0000 1.4635999 7.34437 -72.4054
40 1 15 0.0000 3.6449301 5.4786496 -72.1197
41 1 15 0.0000 3.71384 7.35295 -73.9968
42 1 2 0.0000 -3.5710201 7.67768 -71.1123
43 1 16 0.0000 -4.79203 8.25362 -73.425
44 1 2 0.0000 -4.1389 6.85704 -68.1383
45 1 5 0.0000 -2.90807 4.50828 -67.7146
46 1 2 0.0000 -6.78121 6.7937202 -64.9545
47 1 3 -1.0000 -5.78047 9.23177 -62.477398
48 1 12 0.0000 -10.714901 4.03513 -64.947
49 1 6 0.0000 -12.1208 2.9790802 -61.8758
50 1 1 1.0000 -12.012 1.8078101 -58.9805
51 1 12 0.0000 -12.743799 6.1813 -66.8197
52 1 2 0.0000 -9.08282 8.121349 -67.4101
53 1 2 0.0000 -9.83757 11.2339 -65.8516
54 1 6 0.0000 -10.360201 9.23367 -63.0035
55 1 1 1.0000 -9.97115 7.2034 -60.910103
56 1 2 0.0000 -9.67766 12.8241005 -69.7059
57 1 14 0.0000 -10.833 10.556801 -71.686905
58 1 15 0.0000 -9.33173 8.55788 -72.4426
59 1 15 0.0000 -11.654201 8.00716 -71.949
60 1 2 0.0000 -5.62108 12.613899 -71.5057
61 1 6 0.0000 -4.8475304 12.173 -68.2466
62 1 1 1.0000 -3.4463701 11.2877 -65.8952
63 1 2 0.0000 -4.0026703 13.0462 -74.9003
64 1 16 0.0000 -3.66184 14.7587 -76.979
65 1 2 0.0000 -1.18812 10.362901 -76.3703
66 1 11 0.0000 -0.114767 6.1143303 -76.789
67 1 6 0.0000 1.54018 5.6800404 -78.9964
68 1 2 0.0000 -1.32564 4.00496 -74.2649
69 1 2 0.0000 -4.49675 4.1061 -75.8714
70 1 2 0.0000 -1.6689501 1.84573 -72.415
71 1 8 0.0000 0.517989 2.27638 -69.9971
72 1 12 0.0000 -5.92233 2.3678598 -73.616196
73 1 14 0.0000 -7.3233404 3.2375197 -71.3672
74 1 15 0.0000 -9.589931 3.96519 -70.5129
75 1 15 0.0000 -7.3747497 3.32658 -68.7588
76 1 12 0.0000 -7.3135 -1.07157 -73.1344
77 1 2 0.0000 -5.27101 -2.1652899 -71.2469
78 1 8 0.0000 -4.22973 -0.87062204 -68.562004
79 1 12 0.0000 -5.75386 -5.7618303 -70.113
80 1 10 0.0000 -4.20458 -6.43023 -67.2589
81 1 10 0.0000 -3.8452601 -6.00243 -64.6741
82 1 10 0.0000 -6.1381297 -6.82397 -65.082596
83 1 12 0.0000 -5.21306 -8.14634 -72.5606
84 1 2 0.0000 -4.52369 -6.91249 -75.8925
85 1 7 0.0000 -3.83504 -3.9582398 -75.8121
86 1 1 1.0000 -3.6231601 -0.922532 -76.395706
87 1 2 0.0000 -3.2395601 -8.21405 -78.7845
88 1 6 0.0000 -0.82346404 -9.18427 -80.1738
89 1 1 1.0000 0.0573316 -11.5818 -80.1614
90 1 12 0.0000 -2.36238 -4.35954 -79.980995
91 1 16 0.0000 -0.200224 -4.35518 -78.6773
92 1 12 0.0000 -4.92375 -2.8780901 -81.8457
93 1 2 0.0000 -7.30479 -0.87016404 -79.7171
94 1 11 0.0000 -8.81491 -3.19334 -77.6455
95 1 11 0.0000 -8.7192 2.07654 -77.957
96 1 7 0.0000 -10.2697 4.08679 -75.8303
97 1 6 0.0000 -13.098801 2.83102 -75.4334
98 1 12 0.0000 -8.61339 6.8880897 -77.3207
99 1 2 0.0000 -8.49489 5.50792 -80.5989
100 1 10 0.0000 -7.461 7.68341 -82.6627
101 1 10 0.0000 -5.77295 7.6027102 -84.7135
102 1 10 0.0000 -7.37365 9.79366 -84.063194
103 1 2 0.0000 -4.86922 3.3049603 -81.7086
104 1 16 0.0000 -5.66184 2.2901 -83.9145
105 1 2 0.0000 -2.0813398 5.06571 -82.166504
106 1 14 0.0000 -3.0033498 7.77812 -81.1578
107 1 14 0.0000 -4.7012 9.17803 -79.8068
108 1 15 0.0000 -3.03222 10.38 -81.4729
109 1 2 0.0000 -1.0901799 4.97291 -85.5241
110 1 16 0.0000 -2.4219599 5.96803 -87.648094
111 1 4 0.0000 1.56295 3.06183 -85.7642
112 1 3 -1.0000 2.15286 1.3510101 -88.105095
113 1 7 0.0000 2.61217 2.2416 -82.7866
114 1 12 0.0000 -0.163172 0.613507 -81.8245
115 1 2 0.0000 -0.282366 1.14247 -78.9415
116 1 12 0.0000 -0.317914 -1.47992 -84.3958
117 1 6 0.0000 -2.33965 -0.446842 -86.6906
118 1 1 1.0000 -2.07033 1.21626 -89.264694
119 1 9 0.0000 2.43623 -3.02498 -83.6046
120 1 2 0.0000 3.46528 -3.36321 -86.6771
121 1 2 0.0000 4.32615 -5.33634 -81.879105
122 1 6 0.0000 7.93684 -5.09027 -81.490295
123 1 1 1.0000 9.849871 -5.9696603 -79.3509
124 1 2 0.0000 3.6465201 -7.11736 -80.032196
125 1 2 0.0000 2.3874302 -8.38276 -76.8401
126 1 8 0.0000 3.37643 -11.015 -76.4478
127 1 2 0.0000 -0.247152 -8.81774 -73.5078
128 1 16 0.0000 -1.40766 -10.5645 -74.713806
129 1 2 0.0000 -0.59175 -7.9576597 -70.2932
130 1 14 0.0000 -0.903117 -5.1189203 -70.6713
131 1 17 0.0000 0.114474 -2.97614 -71.8114
132 1 10 0.0000 -0.000925701 -5.0762396 -73.4253
133 1 10 0.0000 0.736368 -2.6907701 -74.1091
134 1 2 0.0000 0.29064202 -8.36917 -67.0993
135 1 6 0.0000 2.53757 -10.6484995 -67.1236
136 1 1 1.0000 3.8407497 -11.4502 -64.7045
137 1 4 0.0000 2.67317 -6.24794 -65.9651
138 1 3 -1.0000 5.46092 -7.76046 -62.571102
139 1 4 0.0000 5.2124796 -7.47756 -67.3495
140 1 3 -1.0000 6.56071 -8.05266 -63.1518
141 1 4 0.0000 4.56175 -6.54393 -70.6259
142 1 16 0.0000 4.97795 -8.4767 -72.2991
143 1 12 0.0000 4.45584 -3.51691 -69.868004
144 1 8 0.0000 4.22398 -0.47894502 -70.1095
145 1 9 0.0000 7.52819 -3.2771997 -68.892
146 1 13 0.0000 10.142401 -5.77528 -66.4254
147 1 9 0.0000 8.75636 -3.52845 -71.7115
148 1 3 -1.0000 11.6298 -4.1974897 -74.9151
149 1 9 0.0000 7.7541203 -0.534418 -73.0313
150 1 14 0.0000 5.48394 1.09488 -74.4455
151 1 14 0.0000 4.39965 2.62272 -76.5641
152 1 15 0.0000 2.9267697 1.52851 -74.8181
153 1 12 0.0000 9.27176 1.56775 -71.3658
154 1 8 0.0000 6.96563 3.43804 -69.7689
155 1 12 0.0000 12.4411 0.88193405 -72.3585
156 1 3 -1.0000 16.3078 0.27496 -71.1791
157 1 2 0.0000 12.734099 3.81035 -74.0547
158 1 2 0.0000 15.2944 4.57606 -75.667
159 1 7 0.0000 9.720551 3.32616 -75.6343
160 1 6 0.0000 8.07405 5.60498 -74.3058
161 1 12 0.0000 10.6813 3.38104 -78.5877
162 1 6 0.0000 12.5991 6.2220197 -79.6755
163 1 1 1.0000 12.4859 9.09853 -79.0557
164 1 12 0.0000 11.3772 0.212419 -78.456
165 1 6 0.0000 13.952499 -0.0856857 -77.2823
166 1 1 1.0000 15.4428005 -1.33134 -75.430695
167 1 12 0.0000 8.32755 -0.84526706 -78.232895
168 1 14 0.0000 6.4046903 -3.0663202 -76.8991
169 1 14 0.0000 4.65391 -3.86065 -75.0627
170 1 15 0.0000 6.2105 -5.2768703 -75.745804
171 1 2 0.0000 6.21746 -0.153404 -80.4877
172 1 8 0.0000 3.8256402 -1.5406599 -79.3966
173 1 7 0.0000 6.8204403 -0.40377098 -83.5746
174 1 6 0.0000 9.43433 -1.2417899 -84.6147
175 1 12 0.0000 8.42025 3.2593398 -83.029205
176 1 2 0.0000 6.54727 6.4888196 -81.1326
177 1 16 0.0000 6.73348 6.19707 -78.857
178 1 2 0.0000 4.31196 6.69394 -83.486496
179 1 6 0.0000 6.49355 5.3247204 -85.67351
180 1 1 1.0000 6.26555 3.05277 -87.58119
181 1 2 0.0000 1.8051 9.07119 -83.2405
182 1 13 0.0000 1.95778 8.31479 -87.7396
183 1 2 0.0000 2.2393398 11.6083 -80.5605
184 1 8 0.0000 0.253456 13.7923 -80.3547
185 1 2 0.0000 3.9165401 10.8569 -77.4536
186 1 10 0.0000 3.2212498 13.8372 -76.2984
187 1 10 0.0000 3.2646 15.809299 -74.4336
188 1 10 0.0000 1.44069 15.868501 -76.272804
189 1 11 0.0000 7.37246 10.595599 -77.0304
190 1 2 0.0000 9.25772 10.0311 -74.0556
191 1 2 0.0000 11.4856 8.12391 -71.406105
192 1 8 0.0000 12.3565 10.4627 -69.5346
193 1 2 0.0000 11.7844 5.02008 -68.8166
194 1 6 0.0000 14.8465 5.07833 -69.6216
195 1 1 1.0000 16.702501 4.0799704 -68.6509
196 1 2 0.0000 15.3939 1.46914 -65.9173
197 1 6 0.0000 17.103 2.42713 -63.670303
198 1 1 1.0000 17.054699 4.32049 -61.4184
199 1 4 0.0000 14.067499 -1.20044 -63.8874
200 1 6 0.0000 11.9321 -3.59655 -62.582203
201 1 1 1.0000 8.96377 -4.71097 -61.627003
202 1 4 0.0000 13.1166 0.961702 -61.768497
203 1 16 0.0000 11.8749 0.584703 -59.4328
204 1 4 0.0000 11.870001 3.30998 -64.0141
205 1 3 -1.0000 14.7334 6.2745 -64.8626
206 1 4 0.0000 10.131201 1.34992 -65.664505
207 1 7 0.0000 11.633901 -0.69931597 -67.7038
208 1 1 1.0000 13.2458 -3.16118 -69.7578
209 1 7 0.0000 8.80973 -0.0942358 -63.281597
210 1 3 -1.0000 7.0995703 -1.43956 -59.3672
211 1 7 0.0000 7.12494 2.35217 -62.0877
212 1 3 -1.0000 6.16181 -0.51406 -59.7477
213 1 7 0.0000 5.61368 3.25222 -64.8694
214 1 8 0.0000 7.53506 5.5591 -65.661995
215 1 7 0.0000 4.11422 0.70677304 -65.2236
216 1 8 0.0000 5.34965 -2.21834 -64.9259
217 1 13 0.0000 2.5709 0.989946 -62.449097
218 1 7 0.0000 0.640462 3.12307 -63.604897
219 1 14 0.0000 1.09522 5.5897403 -65.251396
220 1 14 0.0000 2.36292 6.1165295 -67.2379
221 1 15 0.0000 0.54098 7.89685 -66.271805
222 1 7 0.0000 -0.73997295 0.707292 -65.5726
223 1 8 0.0000 0.808084 -2.2318501 -66.8685
224 1 7 0.0000 -1.9159501 -1.02977 -63.067
225 1 6 0.0000 0.49246603 -3.43868 -61.7898
226 1 1 1.0000 3.54005 -3.99431 -61.0748
227 1 9 0.0000 -3.58462 1.50809 -61.6585
228 1 6 0.0000 -2.54319 1.4697499 -58.4952
229 1 1 1.0000 -4.28224 1.9473801 -55.820698
230 1 7 0.0000 -5.54517 2.17704 -64.0124
231 1 9 0.0000 -7.0794897 -0.832294 -63.9357
232 1 16 0.0000 -8.07171 -1.72889 -66.2109
233 1 9 0.0000 -8.001679 -0.47443503 -61.0006
234 1 2 0.0000 -6.1540403 -2.33139 -59.2263
235 1 3 -1.0000 -7.7577 2.8576698 -60.1433
236 1 3 -1.0000 -8.10199 4.57629 -57.4147

Bonds

1 1 1 2
2 1 31 33
3 1 33 34
4 1 34 36
5 1 36 38
6 1 38 42
7 1 42 44
8 1 44 46
9 1 46 48
10 1 48 51
11 1 51 52
12 1 52 53
13 1 53 56
14 1 56 60
15 1 60 63
16 1 63 65
17 1 65 66
18 1 66 68
19 1 68 70
20 1 70 72
21 1 72 76
22 1 76 77
23 1 77 79
24 1 79 83
25 1 83 84
26 1 84 87
27 1 87 90
28 1 90 92
29 1 92 93
30 1 93 95
31 1 95 96
32 1 96 98
33 1 98 99
34 1 99 103
35 1 103 105
36 1 105 109
37 1 121 124
38 1 124 125
39 1 125 127
40 1 127 129
41 1 129 134
42 1 153 155
43 1 155 157
44 1 171 173
45 1 173 175
46 1 175 176
47 1 176 178
48 1 178 181
49 1 181 183
50 1 183 185
51 1 185 189
52 1 189 190
53 1 190 191
54 1 191 193
55 1 193 196
56 2 2 3
57 3 6 7
58 4 8 9
59 5 9 10
60 4 12 13
61 5 13 14
62 4 15 16
63 5 16 17
64 6 20 21
65 3 26 27
66 4 28 29
67 5 29 30
68 6 31 32
69 3 34 35
70 6 36 37
71 2 38 39
72 3 46 47
73 4 48 49
74 5 49 50
75 4 53 54
76 5 54 55
77 2 56 57
78 4 60 61
79 5 61 62
80 7 66 67
81 8 68 69
82 9 70 71
83 2 72 73
84 9 77 78
85 6 79 80
86 4 84 85
87 10 85 86
88 4 87 88
89 5 88 89
90 3 93 94
91 7 96 97
92 6 99 100
93 8 105 106
94 2 111 112
95 8 114 115
96 4 116 117
97 5 117 118
98 8 119 120
99 4 121 122
100 5 122 123
101 11 129 130
102 4 134 135
103 5 135 136
104 3 137 138
105 3 139 140
106 9 143 144
107 12 145 146
108 3 147 148
109 8 149 150
110 9 153 154
111 3 155 156
112 8 157 158
113 7 159 160
114 4 161 162
115 5 162 163
116 4 164 165
117 5 165 166
118 8 167 168
119 7 173 174
120 4 178 179
121 5 179 180
122 12 181 182
123 6 185 186
124 4 193 194
125 5 194 195
126 4 196 197
127 5 197 198
128 4 199 200
129 5 200 201
130 3 204 205
131 4 206 207
132 10 207 208
133 3 209 210
134 2 211 212
135 9 213 214
136 8 218 219
137 9 222 223
138 4 224 225
139 5 225 226
140 4 227 228
141 5 228 229
142 8 233 234
143 3 235 236
144 13 2 4
145 14 4 6
146 14 6 8
147 14 8 11
148 14 11 12
149 14 12 15
150 14 15 18
151 14 18 20
152 14 20 24
153 14 24 26
154 14 26 28
155 13 28 31
156 13 109 111
157 14 111 113
158 14 113 114
159 14 114 116
160 14 116 119
161 13 119 121
162 13 134 137
163 14 137 139
164 14 139 141
165 14 141 143
166 14 143 145
167 14 145 147
168 14 147 149
169 13 149 153
170 13 157 159
171 14 159 161
172 14 161 164
173 14 164 167
174 13 167 171
175 13 196 199
176 14 199 202
177 14 202 204
178 14 204 206
179 14 206 209
180 14 209 211
181 14 211 213
182 14 213 215
183 14 215 217
184 14 217 218
185 14 218 222
186 14 222 224
187 14 224 227
188 14 227 230
189 14 230 231
190 14 231 233
191 13 233 235
192 15 4 5
193 14 18 19
194 16 21 22
195 16 21 23
196 16 22 23
197 15 24 25
198 16 39 40
199 16 39 41
200 16 40 41
201 17 42 43
202 15 44 45
203 16 57 58
204 16 57 59
205 16 58 59
206 17 63 64
207 16 73 74
208 16 73 75
209 16 74 75
210 16 80 81
211 16 80 82
212 16 81 82
213 17 90 91
214 16 100 101
215 16 100 102
216 16 101 102
217 17 103 104
218 16 106 107
219 16 106 108
220 16 107 108
221 17 109 110
222 14 125 126
223 17 127 128
224 16 130 131
225 16 130 132
226 16 131 132
227 16 131 133
228 16 132 133
229 17 141 142
230 16 150 151
231 16 150 152
232 16 151 152
233 16 168 169
234 16 168 170
235 16 169 170
236 14 171 172
237 17 176 177
238 14 183 184
239 16 186 187
240 16 186 188
241 16 187 188
242 14 191 192
243 17 202 203
244 14 215 216
245 16 219 220
246 16 219 221
247 16 220 221
248 17 231 232

Angles

1 1 1 2 4
2 1 2 4 6
3 2 4 6 8
4 2 6 8 11
5 2 8 11 12
6 2 11 12 15
7 2 12 15 18
8 2 15 18 20
9 2 18 20 24
10 2 20 24 26
11 2 24 26 28
12 3 26 28 31
13 3 28 31 33
14 3 31 33 34
15 3 33 34 36
16 3 34 36 38
17 3 36 38 42
18 1 38 42 44
19 1 42 44 46
20 3 44 46 48
21 3 46 48 51
22 3 48 51 52
23 3 51 52 53
24 1 52 53 56
25 1 53 56 60
26 1 56 60 63
27 1 60 63 65
28 4 63 65 66
29 1 65 66 68
30 1 66 68 70
31 3 68 70 72
32 3 70 72 76
33 3 72 76 77
34 3 76 77 79
35 3 77 79 83
36 3 79 83 84
37 3 83 84 87
38 3 84 87 90
39 3 87 90 92
40 3 90 92 93
41 3 92 93 95
42 1 93 95 96
43 3 95 96 98
44 3 96 98 99
45 3 98 99 103
46 1 99 103 105
47 1 103 105 109
48 1 105 109 111
49 1 109 111 113
50 2 111 113 114
51 2 113 114 116
52 2 114 116 119
53 1 116 119 121
54 1 119 121 124
55 1 121 124 125
56 1 124 125 127
57 1 125 127 129
58 1 127 129 134
59 1 129 134 137
60 4 134 137 139
61 2 137 139 141
62 2 139 141 143
63 2 141 143 145
64 2 143 145 147
65 2 145 147 149
66 3 147 149 153
67 3 149 153 155
68 3 153 155 157
69 3 155 157 159
70 5 157 159 161
71 5 159 161 164
72 2 161 164 167
73 4 164 167 171
74 4 167 171 173
75 3 171 173 175
76 3 173 175 176
77 3 175 176 178
78 1 176 178 181
79 1 178 181 183
80 1 181 183 185
81 1 183 185 189
82 1 185 189 190
83 1 189 190 191
84 1 190 191 193
85 1 191 193 196
86 1 193 196 199
87 4 196 199 202
88 2 199 202 204
89 2 202 204 206
90 2 204 206 209
91 2 206 209 211
92 2 209 211 213
93 2 211 213 215
94 2 213 215 217
95 2 215 217 218
96 2 217 218 222
97 2 218 222 224
98 2 222 224 227
99 2 224 227 230
100 2 227 230 231
101 2 230 231 233
102 1 231 233 235
103 6 1 2 3
104 6 2 4 5
105 6 4 6 7
106 6 6 8 9
107 6 11 12 13
108 6 12 15 16
109 6 15 18 19
110 6 18 20 21
111 6 20 24 25
112 6 24 26 27
113 6 26 28 29
114 6 28 31 32
115 6 33 34 35
116 6 34 36 37
117 6 36 38 39
118 6 38 42 43
119 6 42 44 45
120 6 44 46 47
121 6 46 48 49
122 6 52 53 54
123 6 53 56 57
124 6 56 60 61
125 6 60 63 64
126 6 65 66 67
127 6 66 68 69
128 6 68 70 71
129 6 70 72 73
130 6 76 77 78
131 6 77 79 80
132 6 83 84 85
133 6 84 87 88
134 6 87 90 91
135 6 92 93 94
136 6 95 96 97
137 6 98 99 100
138 6 99 103 104
139 6 103 105 106
140 6 105 109 110
141 6 109 111 112
142 6 113 114 115
143 6 114 116 117
144 6 116 119 120
145 6 119 121 122
146 6 124 125 126
147 6 125 127 128
148 6 127 129 130
149 6 129 134 135
150 6 134 137 138
151 6 137 139 140
152 6 139 141 142
153 6 141 143 144
154 6 143 145 146
155 6 145 147 148
156 6 147 149 150
157 6 149 153 154
158 6 153 155 156
159 6 155 157 158
160 6 157 159 160
161 6 159 161 162
162 6 161 164 165
163 6 164 167 168
164 6 167 171 172
165 6 171 173 174
166 6 175 176 177
167 6 176 178 179
168 6 178 181 182
169 6 181 183 184
170 6 183 185 186
171 6 190 191 192
172 6 191 193 194
173 6 193 196 197
174 6 196 199 200
175 6 199 202 203
176 6 202 204 205
177 6 204 206 207
178 6 206 209 210
179 6 209 211 212
180 6 211 213 214
181 6 213 215 216
182 6 217 218 219
183 6 218 222 223
184 6 222 224 225
185 6 224 227 228
186 6 230 231 232
187 6 231 233 234
188 6 233 235 236
189 7 8 9 10
190 7 12 13 14
191 7 15 16 17
192 8 20 21 22
193 8 20 21 23
194 7 28 29 30
195 8 38 39 40
196 8 38 39 41
197 7 48 49 50
198 7 53 54 55
199 8 56 57 58
200 8 56 57 59
201 7 60 61 62
202 8 72 73 74
203 8 72 73 75
204 8 79 80 81
205 8 79 80 82
206 7 84 85 86
207 7 87 88 89
208 8 99 100 101
209 8 99 100 102
210 8 105 106 107
211 8 105 106 108
212 7 116 117 118
213 7 121 122 123
214 9 129 130 131
215 10 129 130 132
216 7 134 135 136
217 8 149 150 151
218 8 149 150 152
219 7 161 162 163
220 7 164 165 166
221 8 167 168 169
222 8 167 168 170
223 7 178 179 180
224 8 185 186 187
225 8 185 186 188
226 7 193 194 195
227 7 196 197 198
228 7 199 200 201
229 7 206 207 208
230 8 218 219 220
231 8 218 219 221
232 7 224 225 226
233 7 227 228 229

Dihedrals

1 1 4 6 8 11
2 1 6 8 11 12
3 1 8 11 12 15
4 1 11 12 15 18
5 1 12 15 18 20
6 1 15 18 20 24
7 1 18 20 24 26
8 1 20 24 26 28
9 1 111 113 114 116
10 1 113 114 116 119
11 1 137 139 141 143
12 1 139 141 143 145
13 1 141 143 145 147
14 1 143 145 147 149
15 1 159 161 164 167
16 1 199 202 204 206
17 1 202 204 206 209
18 1 204 206 209 211
19 1 206 209 211 213
20 1 209 211 213 215
21 1 211 213 215 217
22 1 213 215 217 218
23 1 215 217 218 222
24 1 217 218 222 224
25 1 218 222 224 227
26 1 222 224 227 230
27 1 224 227 230 231
28 1 227 230 231 233

Impropers

1 1 20 22 23 21
2 1 38 40 41 39
3 1 56 58 59 57
4 1 72 74 75 73
5 1 79 81 82 80
6 1 99 101 102 100
7 1 105 107 108 106
8 1 129 131 132 130
9 2 130 131 133 132
10 1 149 151 152 150
11 1 167 169 170 168
12 1 185 187 188 186
13 1 218 220 221 219

