comment

236 atoms
248 bonds
233 angles
28 dihedrals
13 impropers

17 atom types
17 bond types
10 angle types
1 dihedral types
2 improper types

-40.5 40.5 xlo xhi
-40.5 40.5 ylo yhi
-190.0 190.0 zlo zhi

Masses

1 72.0
2 72.0
3 72.0
4 72.0
5 72.0
6 72.0
7 72.0
8 72.0
9 72.0
10 45.0
11 72.0
12 72.0
13 72.0
14 45.0
15 45.0
16 72.0
17 45.0

PairIJ Coeffs

1 1 1.19503 4.699999999999999
1 2 1.3384336 4.699999999999999
1 3 1.3384336 4.699999999999999
1 4 0.956024 4.699999999999999
1 5 0.478012 4.699999999999999
1 6 0.5497137999999999 4.699999999999999
1 7 0.836521 4.699999999999999
1 8 0.478012 4.699999999999999
1 9 1.19503 4.699999999999999
1 10 0.7409186 4.699999999999999
1 11 1.3384336 4.699999999999999
1 12 1.19503 4.699999999999999
1 13 0.7409186 4.699999999999999
1 14 0.6453162 4.699999999999999
1 15 1.19503 4.699999999999999
1 16 1.19503 4.699999999999999
1 17 0.956024 4.699999999999999
2 2 1.3384336 4.699999999999999
2 3 1.3384336 4.699999999999999
2 4 1.19503 4.699999999999999
2 5 0.5497137999999999 4.699999999999999
2 6 0.6453162 4.699999999999999
2 7 0.836521 4.699999999999999
2 8 0.478012 4.699999999999999
2 9 1.19503 4.699999999999999
2 10 0.7409186 4.699999999999999
2 11 1.3384336 4.699999999999999
2 12 1.19503 4.699999999999999
2 13 0.7409186 4.699999999999999
2 14 0.6453162 4.699999999999999
2 15 1.3384336 4.699999999999999
2 16 1.3384336 4.699999999999999
2 17 1.19503 4.699999999999999
3 3 1.19503 4.699999999999999
3 4 1.19503 4.699999999999999
3 5 0.478012 4.699999999999999
3 6 0.5497137999999999 4.699999999999999
3 7 0.836521 4.699999999999999
3 8 0.478012 4.699999999999999
3 9 0.956024 4.699999999999999
3 10 0.7409186 4.699999999999999
3 11 1.3384336 4.699999999999999
3 12 1.19503 4.699999999999999
3 13 0.7409186 4.699999999999999
3 14 0.6453162 4.699999999999999
3 15 1.19503 4.699999999999999
3 16 1.19503 4.699999999999999
3 17 1.19503 4.699999999999999
4 4 0.956024 4.699999999999999
4 5 0.6453162 4.699999999999999
4 6 0.6453162 4.699999999999999
4 7 0.836521 4.699999999999999
4 8 0.6453162 4.699999999999999
4 9 1.075527 4.699999999999999
4 10 0.836521 4.699999999999999
4 11 0.956024 4.699999999999999
4 12 1.075527 4.699999999999999
4 13 0.836521 4.699999999999999
4 14 0.7409186 4.699999999999999
4 15 1.075527 4.699999999999999
4 16 1.075527 4.699999999999999
4 17 0.956024 4.699999999999999
5 5 0.836521 4.699999999999999
5 6 0.836521 4.699999999999999
5 7 0.7409186 4.699999999999999
5 8 0.836521 4.699999999999999
5 9 0.6453162 4.699999999999999
5 10 0.7409186 4.699999999999999
5 11 0.5497137999999999 4.699999999999999
5 12 0.6453162 4.699999999999999
5 13 0.7409186 4.699999999999999
5 14 0.7409186 4.699999999999999
5 15 0.7409186 4.699999999999999
5 16 0.7409186 4.699999999999999
5 17 0.6453162 4.699999999999999
6 6 0.836521 4.699999999999999
6 7 0.836521 4.699999999999999
6 8 0.836521 4.699999999999999
6 9 0.6453162 4.699999999999999
6 10 0.836521 4.699999999999999
6 11 0.6453162 4.699999999999999
6 12 0.6453162 4.699999999999999
6 13 0.836521 4.699999999999999
6 14 0.836521 4.699999999999999
6 15 0.836521 4.699999999999999
6 16 0.836521 4.699999999999999
6 17 0.6453162 4.699999999999999
7 7 0.836521 4.699999999999999
7 8 0.6453162 4.699999999999999
7 9 0.836521 4.699999999999999
7 10 0.836521 4.699999999999999
7 11 0.836521 4.699999999999999
7 12 0.836521 4.699999999999999
7 13 0.836521 4.699999999999999
7 14 0.836521 4.699999999999999
7 15 0.956024 4.699999999999999
7 16 0.956024 4.699999999999999
7 17 0.836521 4.699999999999999
8 8 0.836521 4.699999999999999
8 9 0.6453162 4.699999999999999
8 10 0.7409186 4.699999999999999
8 11 0.478012 4.699999999999999
8 12 0.6453162 4.699999999999999
8 13 0.7409186 4.699999999999999
8 14 0.7409186 4.699999999999999
8 15 0.6453162 4.699999999999999
8 16 0.6453162 4.699999999999999
8 17 0.6453162 4.699999999999999
9 9 0.956024 4.699999999999999
9 10 0.836521 4.699999999999999
9 11 0.956024 4.699999999999999
9 12 1.075527 4.699999999999999
9 13 0.836521 4.699999999999999
9 14 0.7409186 4.699999999999999
9 15 1.075527 4.699999999999999
9 16 1.075527 4.699999999999999
9 17 1.075527 4.699999999999999
10 10 0.62739075 4.3
10 11 0.7409186 4.699999999999999
10 12 0.836521 4.699999999999999
10 13 0.836521 4.699999999999999
10 14 0.62739075 4.3
10 15 0.62739075 4.3
10 16 0.836521 4.699999999999999
10 17 0.62739075 4.3
11 11 1.19503 4.699999999999999
11 12 0.956024 4.699999999999999
11 13 0.7409186 4.699999999999999
11 14 0.6453162 4.699999999999999
11 15 1.075527 4.699999999999999
11 16 1.075527 4.699999999999999
11 17 0.956024 4.699999999999999
12 12 1.075527 4.699999999999999
12 13 0.836521 4.699999999999999
12 14 0.7409186 4.699999999999999
12 15 1.075527 4.699999999999999
12 16 1.075527 4.699999999999999
12 17 1.075527 4.699999999999999
13 13 0.836521 4.699999999999999
13 14 0.836521 4.699999999999999
13 15 0.836521 4.699999999999999
13 16 0.836521 4.699999999999999
13 17 0.836521 4.699999999999999
14 14 0.62739075 4.3
14 15 0.62739075 4.3
14 16 0.836521 4.699999999999999
14 17 0.5556889500000001 4.3
15 15 0.80664525 4.3
15 16 1.075527 4.699999999999999
15 17 0.80664525 4.3
16 16 1.075527 4.699999999999999
16 17 1.075527 4.699999999999999
17 17 0.7170179999999999 4.3

Bond Coeffs

1 1.4937875 3.5
2 8.962725 3.2
3 5.97515 4.0
4 5.97515 3.3000000000000003
5 5.97515 2.8000000000000003
6 8.962725 3.1
7 8.962725 3.0
8 5.97515 3.2
9 8.962725 3.3000000000000003
10 5.97515 3.4000000000000004
11 5.97515 3.0
12 2.987575 4.0
13 11.9503 3.3000000000000003
14 11.9503 3.1
15 11.9503 2.6500000000000004
16 11.9503 2.7
17 11.9503 2.6

Angle Coeffs

1 2.39006 127
2 83.6521 96
3 2.39006 100
4 2.39006 130
5 11.9503 98
6 2.987575 100
7 2.987575 180
8 5.97515 150
9 5.97515 210
10 5.97515 90

Dihedral Coeffs

1 95.6024 1 -120 0

Improper Coeffs

1 5.97515 0
2 23.9006 0

Atoms

1 1 1 1.0000 1.2549999 -0.027 -48.818
2 1 2 0.0000 0.081297 0.20891699 -51.1643
3 1 3 -1.0000 -1.32215 -0.840751 -53.2711
4 1 4 0.0000 1.74125 2.1586301 -54.408997
5 1 5 0.0000 3.0264301 0.299332 -55.847504
6 1 4 0.0000 1.94855 5.26531 -54.6874
7 1 3 -1.0000 -1.72791 5.99012 -55.4817
8 1 4 0.0000 4.71805 5.59214 -56.352
9 1 6 0.0000 7.16929 4.0981297 -55.2938
10 1 1 1.0000 8.261021 1.98245 -56.5268
11 1 4 0.0000 3.69758 4.49732 -59.387398
12 1 7 0.0000 1.5046699 6.9104805 -59.8676
13 1 6 0.0000 -1.70612 6.97417 -60.8638
14 1 1 1.0000 -4.27765 6.0589 -59.8136
15 1 7 0.0000 3.6969 9.36908 -59.0966
16 1 6 0.0000 1.94489 10.819 -57.1622
17 1 1 1.0000 0.22142398 9.834021 -54.6397
18 1 7 0.0000 6.1776695 9.15159 -61.2678
19 1 8 0.0000 7.9746904 6.7927003 -60.357
20 1 9 0.0000 4.70936 9.71449 -64.042404
21 1 10 0.0000 5.12641 9.49812 -67.0707
22 1 10 0.0000 4.78487 9.36992 -69.6642
23 1 10 0.0000 7.30669 8.98976 -68.9403
24 1 9 0.0000 3.55185 12.8431 -63.8574
25 1 5 0.0000 1.08275 14.08 -63.246002
26 1 9 0.0000 6.47306 14.3452 -63.1155
27 1 11 0.0000 4.9479203 17.432 -65.2189
28 1 9 0.0000 8.06211 13.4165 -66.139206
29 1 6 0.0000 9.69349 10.9067 -65.4773
30 1 1 1.0000 11.0828 8.82265 -64.4004
31 1 12 0.0000 7.15222 14.2346 -69.2728
32 1 13 0.0000 8.0913105 14.1925 -72.0832
33 1 7 0.0000 3.36585 14.3435 -69.2032
34 1 12 0.0000 1.4282 12.6854 -68.2134
35 1 11 0.0000 -1.58554 16.1273 -67.982895
36 1 12 0.0000 -0.331343 12.5288 -71.525
37 1 13 0.0000 -0.509944 15.7008 -71.226105
38 1 2 0.0000 -0.89492905 8.9395895 -70.6456
39 1 14 0.0000 1.22182 7.3697195 -71.9646
40 1 15 0.0000 3.40412 5.4531903 -72.3107
41 1 15 0.0000 3.1103702 7.8136997 -73.8806
42 1 2 0.0000 -3.79955 7.29649 -71.3786
43 1 16 0.0000 -4.64143 8.11494 -73.3623
44 1 2 0.0000 -4.39362 6.40033 -67.9471
45 1 5 0.0000 -3.0693002 4.2026 -67.614395
46 1 2 0.0000 -6.8075104 6.49591 -65.274704
47 1 3 -1.0000 -5.7677603 9.42702 -62.7563
48 1 12 0.0000 -10.4272995 4.16035 -64.7116
49 1 6 0.0000 -11.7118 3.08413 -62.0542
50 1 1 1.0000 -12.1667 2.04724 -59.218796
51 1 12 0.0000 -12.4417 6.1333 -66.6841
52 1 2 0.0000 -9.05976 8.1813 -66.9464
53 1 2 0.0000 -10.408401 10.615701 -65.9118
54 1 6 0.0000 -10.528801 9.38813 -62.7841
55 1 1 1.0000 -9.50953 7.2487803 -60.8391
56 1 2 0.0000 -9.8601 12.546999 -69.9508
57 1 14 0.0000 -10.563801 10.2916 -71.8653
58 1 15 0.0000 -9.29742 8.07232 -72.656494
59 1 15 0.0000 -11.881 7.89778 -71.513
60 1 2 0.0000 -6.04991 12.9688 -71.7509
61 1 6 0.0000 -4.96874 12.2987995 -68.49
62 1 1 1.0000 -4.0122 11.427601 -66.5143
63 1 2 0.0000 -4.48006 12.584701 -75.286
64 1 16 0.0000 -3.81849 14.773001 -76.7153
65 1 2 0.0000 -1.05386 10.299 -76.061005
66 1 11 0.0000 -0.305192 6.24531 -76.9812
67 1 6 0.0000 1.67097 5.7351103 -79.1203
68 1 2 0.0000 -1.3847 4.13369 -75.1357
69 1 2 0.0000 -4.34059 3.88893 -76.5482
70 1 2 0.0000 -2.0613601 1.91084 -72.479004
71 1 8 0.0000 0.13852699 2.38554 -70.1843
72 1 12 0.0000 -5.7275 2.58656 -73.884
73 1 14 0.0000 -7.04211 3.77112 -71.565796
74 1 15 0.0000 -9.18627 4.03327 -70.552704
75 1 15 0.0000 -7.8292 3.04235 -69.053406
76 1 12 0.0000 -7.4759 -1.3101199 -72.8551
77 1 2 0.0000 -5.01724 -2.11969 -71.5475
78 1 8 0.0000 -3.89579 -1.2096701 -68.5951
79 1 12 0.0000 -5.85407 -5.52186 -70.343796
80 1 10 0.0000 -4.8429303 -5.88279 -67.080696
81 1 10 0.0000 -3.96219 -5.80624 -64.4783
82 1 10 0.0000 -6.3326697 -6.75175 -65.2091
83 1 12 0.0000 -5.1843796 -7.95648 -72.7142
84 1 2 0.0000 -4.8863 -7.0453796 -76.270996
85 1 7 0.0000 -4.01653 -4.14962 -75.529396
86 1 1 1.0000 -3.6614099 -0.99981004 -76.2415
87 1 2 0.0000 -3.31074 -7.6543097 -79.0337
88 1 6 0.0000 -0.985893 -9.1579 -80.4697
89 1 1 1.0000 -0.0355977 -11.8932 -80.1517
90 1 12 0.0000 -1.8868899 -4.15108 -80.0249
91 1 16 0.0000 0.0416494 -3.69517 -78.5538
92 1 12 0.0000 -4.8256598 -2.54962 -81.772606
93 1 2 0.0000 -8.61117 -0.999003 -81.028206
94 1 11 0.0000 -8.9322 -3.5478802 -77.5586
95 1 11 0.0000 -8.88156 1.7243301 -77.9507
96 1 7 0.0000 -10.2074 4.09174 -75.746
97 1 6 0.0000 -12.9445 2.9857502 -75.1588
98 1 12 0.0000 -8.3500395 6.75201 -77.4006
99 1 2 0.0000 -8.1566 4.91895 -80.461105
100 1 10 0.0000 -7.4246697 7.51065 -82.328995
101 1 10 0.0000 -6.02277 7.48948 -84.6309
102 1 10 0.0000 -7.06636 9.928249 -83.862495
103 1 2 0.0000 -5.16187 3.0945501 -81.78529
104 1 16 0.0000 -5.78568 2.6848302 -84.2654
105 1 2 0.0000 -2.1983001 5.23972 -82.0058
106 1 14 0.0000 -3.0956001 7.6438 -80.725006
107 1 14 0.0000 -4.7670703 9.47797 -79.3253
108 1 15 0.0000 -3.14996 10.4073 -81.1932
109 1 2 0.0000 -1.4380001 5.44069 -85.777504
110 1 16 0.0000 -2.6220598 6.0221395 -87.7767
111 1 4 0.0000 1.60123 3.53755 -85.4121
112 1 3 -1.0000 2.22242 1.77668 -88.0551
113 1 7 0.0000 2.5372698 2.5527701 -82.6649
114 1 12 0.0000 -0.260728 0.67933905 -81.7601
115 1 2 0.0000 -0.18475501 0.98584896 -78.9911
116 1 12 0.0000 -0.159139 -1.3409901 -84.0297
117 1 6 0.0000 -2.1802301 -0.42062902 -86.5238
118 1 1 1.0000 -2.06412 0.853185 -88.8103
119 1 9 0.0000 2.6682 -2.8011 -83.475
120 1 2 0.0000 4.1087 -2.44783 -86.3427
121 1 2 0.0000 4.65693 -5.41836 -81.9803
122 1 6 0.0000 7.89828 -5.08796 -81.2258
123 1 1 1.0000 10.1325 -5.3324003 -79.1383
124 1 2 0.0000 4.07586 -7.55111 -80.05
125 1 2 0.0000 2.35162 -8.08881 -77.572495
126 1 8 0.0000 3.3381 -10.8294 -76.6118
127 1 2 0.0000 0.144389 -8.25316 -74.5241
128 1 16 0.0000 -1.39152 -10.5274 -74.3662
129 1 2 0.0000 -1.03418 -8.1727 -70.0007
130 1 14 0.0000 -1.1579 -5.14561 -70.7051
131 1 17 0.0000 -0.37919903 -2.97546 -71.6953
132 1 10 0.0000 0.120229006 -5.1799 -73.2975
133 1 10 0.0000 0.947584 -2.6838999 -73.9836
134 1 2 0.0000 0.19673601 -8.64263 -66.3276
135 1 6 0.0000 2.6178699 -10.9226 -67.136
136 1 1 1.0000 4.74864 -11.591001 -65.2575
137 1 4 0.0000 2.68679 -6.4725204 -65.6276
138 1 3 -1.0000 5.6342 -7.97451 -62.715103
139 1 4 0.0000 5.37782 -7.30721 -67.5679
140 1 3 -1.0000 6.53266 -7.85372 -63.3074
141 1 4 0.0000 4.46509 -6.4731402 -70.7026
142 1 16 0.0000 4.8877 -8.47713 -72.2589
143 1 12 0.0000 4.5392504 -3.31187 -69.8692
144 1 8 0.0000 3.8858602 -0.32583502 -69.8866
145 1 9 0.0000 7.6301003 -3.2353601 -68.7783
146 1 13 0.0000 10.411201 -5.42117 -66.687195
147 1 9 0.0000 9.039721 -3.6669002 -71.8076
148 1 3 -1.0000 11.733 -3.75312 -74.6168
149 1 9 0.0000 7.8092003 -0.77235293 -73.0606
150 1 14 0.0000 5.3033204 0.94478303 -74.5558
151 1 14 0.0000 4.07752 2.55399 -76.4771
152 1 15 0.0000 2.64838 1.62957 -74.8762
153 1 12 0.0000 9.15462 1.7142401 -71.2082
154 1 8 0.0000 6.80244 3.14428 -69.6397
155 1 12 0.0000 12.7458 0.95182 -72.3957
156 1 3 -1.0000 16.575 0.316062 -71.3414
157 1 2 0.0000 12.494299 3.19522 -74.0268
158 1 2 0.0000 14.9545 4.40996 -75.6048
159 1 7 0.0000 9.5748005 3.7452502 -75.4201
160 1 6 0.0000 7.9322 5.77176 -74.0114
161 1 12 0.0000 10.9068 3.46484 -78.6288
162 1 6 0.0000 12.407399 6.24744 -79.5617
163 1 1 1.0000 11.6608 8.81498 -79.1385
164 1 12 0.0000 11.542701 0.284174 -78.581604
165 1 6 0.0000 14.2313 -0.014588099 -77.365295
166 1 1 1.0000 15.8221 -0.96328497 -75.6717
167 1 12 0.0000 8.69297 -0.62223303 -78.187096
168 1 14 0.0000 6.28211 -3.1532202 -76.8228
169 1 14 0.0000 4.62578 -4.1345997 -75.1501
170 1 15 0.0000 6.38051 -5.53941 -75.9617
171 1 2 0.0000 6.5445 -0.345898 -80.4883
172 1 8 0.0000 3.8021202 -1.1044 -79.3091
173 1 7 0.0000 7.26135 -0.299494 -83.638
174 1 6 0.0000 9.817249 -1.3486899 -84.311
175 1 12 0.0000 8.22354 3.4303298 -82.9166
176 1 2 0.0000 7.0773296 6.36549 -81.139496
177 1 16 0.0000 6.4882097 5.88248 -78.807205
178 1 2 0.0000 5.30472 7.56736 -83.451096
179 1 6 0.0000 6.12037 5.52922 -85.7597
180 1 1 1.0000 6.22173 3.70257 -87.924805
181 1 2 0.0000 2.12312 8.71148 -83.3179
182 1 13 0.0000 2.04362 8.21576 -87.7349
183 1 2 0.0000 1.98401 11.1629 -80.4935
184 1 8 0.0000 0.350243 13.7024 -79.9915
185 1 2 0.0000 4.23015 11.4121 -77.3403
186 1 10 0.0000 3.18306 13.962899 -76.2731
187 1 10 0.0000 3.81924 15.4504 -74.4506
188 1 10 0.0000 1.3842499 15.7025 -75.4744
189 1 11 0.0000 7.1672 10.936199 -77.0244
190 1 2 0.0000 9.5389595 10.4854 -74.906906
191 1 2 0.0000 11.2525 7.99139 -71.4793
192 1 8 0.0000 12.3295 10.2899 -69.5632
193 1 2 0.0000 12.4968 4.38433 -68.5357
194 1 6 0.0000 14.8975 4.83068 -70.1191
195 1 1 1.0000 17.1511 4.01061 -68.8405
196 1 2 0.0000 15.2001 0.99315596 -65.8257
197 1 6 0.0000 17.3381 2.46856 -63.614002
198 1 1 1.0000 17.0111 3.3048298 -61.0622
199 1 4 0.0000 14.1372 -1.33205 -63.5364
200 1 6 0.0000 11.5362 -3.58353 -62.444702
201 1 1 1.0000 8.949221 -4.68248 -61.5086
202 1 4 0.0000 12.8159 0.86165196 -61.536198
203 1 16 0.0000 12.052 0.30132 -59.3033
204 1 4 0.0000 11.983 3.3080301 -63.627502
205 1 3 -1.0000 14.997 6.11131 -64.8035
206 1 4 0.0000 10.264999 1.4899001 -65.5756
207 1 7 0.0000 11.3773 -0.54739404 -67.9195
208 1 1 1.0000 13.768 -2.9412699 -69.5111
209 1 7 0.0000 8.84313 0.0705474 -63.1131
210 1 3 -1.0000 6.89077 -1.4539399 -59.127304
211 1 7 0.0000 7.2537203 2.50999 -62.0549
212 1 3 -1.0000 6.13524 -0.82943094 -59.592
213 1 7 0.0000 5.74938 3.3367 -64.8813
214 1 8 0.0000 7.51677 5.81409 -65.5371
215 1 7 0.0000 4.06956 0.420426 -64.9648
216 1 8 0.0000 5.2406 -2.5286498 -64.6627
217 1 13 0.0000 2.30833 1.1942201 -62.112003
218 1 7 0.0000 0.472613 3.25558 -63.5511
219 1 14 0.0000 1.09573 5.73951 -64.9613
220 1 14 0.0000 2.28044 6.08311 -67.449295
221 1 15 0.0000 0.83588195 7.99327 -66.2752
222 1 7 0.0000 -0.820738 0.886823 -65.433
223 1 8 0.0000 0.313926 -2.3007998 -66.7876
224 1 7 0.0000 -1.92106 -0.972877 -62.9656
225 1 6 0.0000 0.78966904 -3.2431302 -61.8243
226 1 1 1.0000 3.59187 -4.3347497 -60.859497
227 1 9 0.0000 -3.31566 1.4235901 -61.3825
228 1 6 0.0000 -2.57979 1.6903 -58.4482
229 1 1 1.0000 -3.9644 1.94216 -56.0615
230 1 7 0.0000 -5.77623 2.0957499 -63.6871
231 1 9 0.0000 -7.2786303 -0.72297204 -63.6582
232 1 16 0.0000 -7.96694 -1.57355 -66.197
233 1 9 0.0000 -8.04654 -0.609361 -60.6823
234 1 2 0.0000 -6.07599 -2.00316 -58.698803
235 1 3 -1.0000 -7.6168003 2.83084 -59.9253
236 1 3 -1.0000 -7.8747897 4.69842 -57.4151

Bonds

1 1 1 2
2 1 31 33
3 1 33 34
4 1 34 36
5 1 36 38
6 1 38 42
7 1 42 44
8 1 44 46
9 1 46 48
10 1 48 51
11 1 51 52
12 1 52 53
13 1 53 56
14 1 56 60
15 1 60 63
16 1 63 65
17 1 65 66
18 1 66 68
19 1 68 70
20 1 70 72
21 1 72 76
22 1 76 77
23 1 77 79
24 1 79 83
25 1 83 84
26 1 84 87
27 1 87 90
28 1 90 92
29 1 92 93
30 1 93 95
31 1 95 96
32 1 96 98
33 1 98 99
34 1 99 103
35 1 103 105
36 1 105 109
37 1 121 124
38 1 124 125
39 1 125 127
40 1 127 129
41 1 129 134
42 1 153 155
43 1 155 157
44 1 171 173
45 1 173 175
46 1 175 176
47 1 176 178
48 1 178 181
49 1 181 183
50 1 183 185
51 1 185 189
52 1 189 190
53 1 190 191
54 1 191 193
55 1 193 196
56 2 2 3
57 3 6 7
58 4 8 9
59 5 9 10
60 4 12 13
61 5 13 14
62 4 15 16
63 5 16 17
64 6 20 21
65 3 26 27
66 4 28 29
67 5 29 30
68 6 31 32
69 3 34 35
70 6 36 37
71 2 38 39
72 3 46 47
73 4 48 49
74 5 49 50
75 4 53 54
76 5 54 55
77 2 56 57
78 4 60 61
79 5 61 62
80 7 66 67
81 8 68 69
82 9 70 71
83 2 72 73
84 9 77 78
85 6 79 80
86 4 84 85
87 10 85 86
88 4 87 88
89 5 88 89
90 3 93 94
91 7 96 97
92 6 99 100
93 8 105 106
94 2 111 112
95 8 114 115
96 4 116 117
97 5 117 118
98 8 119 120
99 4 121 122
100 5 122 123
101 11 129 130
102 4 134 135
103 5 135 136
104 3 137 138
105 3 139 140
106 9 143 144
107 12 145 146
108 3 147 148
109 8 149 150
110 9 153 154
111 3 155 156
112 8 157 158
113 7 159 160
114 4 161 162
115 5 162 163
116 4 164 165
117 5 165 166
118 8 167 168
119 7 173 174
120 4 178 179
121 5 179 180
122 12 181 182
123 6 185 186
124 4 193 194
125 5 194 195
126 4 196 197
127 5 197 198
128 4 199 200
129 5 200 201
130 3 204 205
131 4 206 207
132 10 207 208
133 3 209 210
134 2 211 212
135 9 213 214
136 8 218 219
137 9 222 223
138 4 224 225
139 5 225 226
140 4 227 228
141 5 228 229
142 8 233 234
143 3 235 236
144 13 2 4
145 14 4 6
146 14 6 8
147 14 8 11
148 14 11 12
149 14 12 15
150 14 15 18
151 14 18 20
152 14 20 24
153 14 24 26
154 14 26 28
155 13 28 31
156 13 109 111
157 14 111 113
158 14 113 114
159 14 114 116
160 14 116 119
161 13 119 121
162 13 134 137
163 14 137 139
164 14 139 141
165 14 141 143
166 14 143 145
167 14 145 147
168 14 147 149
169 13 149 153
170 13 157 159
171 14 159 161
172 14 161 164
173 14 164 167
174 13 167 171
175 13 196 199
176 14 199 202
177 14 202 204
178 14 204 206
179 14 206 209
180 14 209 211
181 14 211 213
182 14 213 215
183 14 215 217
184 14 217 218
185 14 218 222
186 14 222 224
187 14 224 227
188 14 227 230
189 14 230 231
190 14 231 233
191 13 233 235
192 15 4 5
193 14 18 19
194 16 21 22
195 16 21 23
196 16 22 23
197 15 24 25
198 16 39 40
199 16 39 41
200 16 40 41
201 17 42 43
202 15 44 45
203 16 57 58
204 16 57 59
205 16 58 59
206 17 63 64
207 16 73 74
208 16 73 75
209 16 74 75
210 16 80 81
211 16 80 82
212 16 81 82
213 17 90 91
214 16 100 101
215 16 100 102
216 16 101 102
217 17 103 104
218 16 106 107
219 16 106 108
220 16 107 108
221 17 109 110
222 14 125 126
223 17 127 128
224 16 130 131
225 16 130 132
226 16 131 132
227 16 131 133
228 16 132 133
229 17 141 142
230 16 150 151
231 16 150 152
232 16 151 152
233 16 168 169
234 16 168 170
235 16 169 170
236 14 171 172
237 17 176 177
238 14 183 184
239 16 186 187
240 16 186 188
241 16 187 188
242 14 191 192
243 17 202 203
244 14 215 216
245 16 219 220
246 16 219 221
247 16 220 221
248 17 231 232

Angles

1 1 1 2 4
2 1 2 4 6
3 2 4 6 8
4 2 6 8 11
5 2 8 11 12
6 2 11 12 15
7 2 12 15 18
8 2 15 18 20
9 2 18 20 24
10 2 20 24 26
11 2 24 26 28
12 3 26 28 31
13 3 28 31 33
14 3 31 33 34
15 3 33 34 36
16 3 34 36 38
17 3 36 38 42
18 1 38 42 44
19 1 42 44 46
20 3 44 46 48
21 3 46 48 51
22 3 48 51 52
23 3 51 52 53
24 1 52 53 56
25 1 53 56 60
26 1 56 60 63
27 1 60 63 65
28 4 63 65 66
29 1 65 66 68
30 1 66 68 70
31 3 68 70 72
32 3 70 72 76
33 3 72 76 77
34 3 76 77 79
35 3 77 79 83
36 3 79 83 84
37 3 83 84 87
38 3 84 87 90
39 3 87 90 92
40 3 90 92 93
41 3 92 93 95
42 1 93 95 96
43 3 95 96 98
44 3 96 98 99
45 3 98 99 103
46 1 99 103 105
47 1 103 105 109
48 1 105 109 111
49 1 109 111 113
50 2 111 113 114
51 2 113 114 116
52 2 114 116 119
53 1 116 119 121
54 1 119 121 124
55 1 121 124 125
56 1 124 125 127
57 1 125 127 129
58 1 127 129 134
59 1 129 134 137
60 4 134 137 139
61 2 137 139 141
62 2 139 141 143
63 2 141 143 145
64 2 143 145 147
65 2 145 147 149
66 3 147 149 153
67 3 149 153 155
68 3 153 155 157
69 3 155 157 159
70 5 157 159 161
71 5 159 161 164
72 2 161 164 167
73 4 164 167 171
74 4 167 171 173
75 3 171 173 175
76 3 173 175 176
77 3 175 176 178
78 1 176 178 181
79 1 178 181 183
80 1 181 183 185
81 1 183 185 189
82 1 185 189 190
83 1 189 190 191
84 1 190 191 193
85 1 191 193 196
86 1 193 196 199
87 4 196 199 202
88 2 199 202 204
89 2 202 204 206
90 2 204 206 209
91 2 206 209 211
92 2 209 211 213
93 2 211 213 215
94 2 213 215 217
95 2 215 217 218
96 2 217 218 222
97 2 218 222 224
98 2 222 224 227
99 2 224 227 230
100 2 227 230 231
101 2 230 231 233
102 1 231 233 235
103 6 1 2 3
104 6 2 4 5
105 6 4 6 7
106 6 6 8 9
107 6 11 12 13
108 6 12 15 16
109 6 15 18 19
110 6 18 20 21
111 6 20 24 25
112 6 24 26 27
113 6 26 28 29
114 6 28 31 32
115 6 33 34 35
116 6 34 36 37
117 6 36 38 39
118 6 38 42 43
119 6 42 44 45
120 6 44 46 47
121 6 46 48 49
122 6 52 53 54
123 6 53 56 57
124 6 56 60 61
125 6 60 63 64
126 6 65 66 67
127 6 66 68 69
128 6 68 70 71
129 6 70 72 73
130 6 76 77 78
131 6 77 79 80
132 6 83 84 85
133 6 84 87 88
134 6 87 90 91
135 6 92 93 94
136 6 95 96 97
137 6 98 99 100
138 6 99 103 104
139 6 103 105 106
140 6 105 109 110
141 6 109 111 112
142 6 113 114 115
143 6 114 116 117
144 6 116 119 120
145 6 119 121 122
146 6 124 125 126
147 6 125 127 128
148 6 127 129 130
149 6 129 134 135
150 6 134 137 138
151 6 137 139 140
152 6 139 141 142
153 6 141 143 144
154 6 143 145 146
155 6 145 147 148
156 6 147 149 150
157 6 149 153 154
158 6 153 155 156
159 6 155 157 158
160 6 157 159 160
161 6 159 161 162
162 6 161 164 165
163 6 164 167 168
164 6 167 171 172
165 6 171 173 174
166 6 175 176 177
167 6 176 178 179
168 6 178 181 182
169 6 181 183 184
170 6 183 185 186
171 6 190 191 192
172 6 191 193 194
173 6 193 196 197
174 6 196 199 200
175 6 199 202 203
176 6 202 204 205
177 6 204 206 207
178 6 206 209 210
179 6 209 211 212
180 6 211 213 214
181 6 213 215 216
182 6 217 218 219
183 6 218 222 223
184 6 222 224 225
185 6 224 227 228
186 6 230 231 232
187 6 231 233 234
188 6 233 235 236
189 7 8 9 10
190 7 12 13 14
191 7 15 16 17
192 8 20 21 22
193 8 20 21 23
194 7 28 29 30
195 8 38 39 40
196 8 38 39 41
197 7 48 49 50
198 7 53 54 55
199 8 56 57 58
200 8 56 57 59
201 7 60 61 62
202 8 72 73 74
203 8 72 73 75
204 8 79 80 81
205 8 79 80 82
206 7 84 85 86
207 7 87 88 89
208 8 99 100 101
209 8 99 100 102
210 8 105 106 107
211 8 105 106 108
212 7 116 117 118
213 7 121 122 123
214 9 129 130 131
215 10 129 130 132
216 7 134 135 136
217 8 149 150 151
218 8 149 150 152
219 7 161 162 163
220 7 164 165 166
221 8 167 168 169
222 8 167 168 170
223 7 178 179 180
224 8 185 186 187
225 8 185 186 188
226 7 193 194 195
227 7 196 197 198
228 7 199 200 201
229 7 206 207 208
230 8 218 219 220
231 8 218 219 221
232 7 224 225 226
233 7 227 228 229

Dihedrals

1 1 4 6 8 11
2 1 6 8 11 12
3 1 8 11 12 15
4 1 11 12 15 18
5 1 12 15 18 20
6 1 15 18 20 24
7 1 18 20 24 26
8 1 20 24 26 28
9 1 111 113 114 116
10 1 113 114 116 119
11 1 137 139 141 143
12 1 139 141 143 145
13 1 141 143 145 147
14 1 143 145 147 149
15 1 159 161 164 167
16 1 199 202 204 206
17 1 202 204 206 209
18 1 204 206 209 211
19 1 206 209 211 213
20 1 209 211 213 215
21 1 211 213 215 217
22 1 213 215 217 218
23 1 215 217 218 222
24 1 217 218 222 224
25 1 218 222 224 227
26 1 222 224 227 230
27 1 224 227 230 231
28 1 227 230 231 233

Impropers

1 1 20 22 23 21
2 1 38 40 41 39
3 1 56 58 59 57
4 1 72 74 75 73
5 1 79 81 82 80
6 1 99 101 102 100
7 1 105 107 108 106
8 1 129 131 132 130
9 2 130 131 133 132
10 1 149 151 152 150
11 1 167 169 170 168
12 1 185 187 188 186
13 1 218 220 221 219

