comment

236 atoms
248 bonds
233 angles
28 dihedrals
13 impropers

17 atom types
17 bond types
10 angle types
1 dihedral types
2 improper types

-40.5 40.5 xlo xhi
-40.5 40.5 ylo yhi
-190.0 190.0 zlo zhi

Masses

1 72.0
2 72.0
3 72.0
4 72.0
5 72.0
6 72.0
7 72.0
8 72.0
9 72.0
10 45.0
11 72.0
12 72.0
13 72.0
14 45.0
15 45.0
16 72.0
17 45.0

PairIJ Coeffs

1 1 1.19503 4.699999999999999
1 2 1.3384336 4.699999999999999
1 3 1.3384336 4.699999999999999
1 4 0.956024 4.699999999999999
1 5 0.478012 4.699999999999999
1 6 0.5497137999999999 4.699999999999999
1 7 0.836521 4.699999999999999
1 8 0.478012 4.699999999999999
1 9 1.19503 4.699999999999999
1 10 0.7409186 4.699999999999999
1 11 1.3384336 4.699999999999999
1 12 1.19503 4.699999999999999
1 13 0.7409186 4.699999999999999
1 14 0.6453162 4.699999999999999
1 15 1.19503 4.699999999999999
1 16 1.19503 4.699999999999999
1 17 0.956024 4.699999999999999
2 2 1.3384336 4.699999999999999
2 3 1.3384336 4.699999999999999
2 4 1.19503 4.699999999999999
2 5 0.5497137999999999 4.699999999999999
2 6 0.6453162 4.699999999999999
2 7 0.836521 4.699999999999999
2 8 0.478012 4.699999999999999
2 9 1.19503 4.699999999999999
2 10 0.7409186 4.699999999999999
2 11 1.3384336 4.699999999999999
2 12 1.19503 4.699999999999999
2 13 0.7409186 4.699999999999999
2 14 0.6453162 4.699999999999999
2 15 1.3384336 4.699999999999999
2 16 1.3384336 4.699999999999999
2 17 1.19503 4.699999999999999
3 3 1.19503 4.699999999999999
3 4 1.19503 4.699999999999999
3 5 0.478012 4.699999999999999
3 6 0.5497137999999999 4.699999999999999
3 7 0.836521 4.699999999999999
3 8 0.478012 4.699999999999999
3 9 0.956024 4.699999999999999
3 10 0.7409186 4.699999999999999
3 11 1.3384336 4.699999999999999
3 12 1.19503 4.699999999999999
3 13 0.7409186 4.699999999999999
3 14 0.6453162 4.699999999999999
3 15 1.19503 4.699999999999999
3 16 1.19503 4.699999999999999
3 17 1.19503 4.699999999999999
4 4 0.956024 4.699999999999999
4 5 0.6453162 4.699999999999999
4 6 0.6453162 4.699999999999999
4 7 0.836521 4.699999999999999
4 8 0.6453162 4.699999999999999
4 9 1.075527 4.699999999999999
4 10 0.836521 4.699999999999999
4 11 0.956024 4.699999999999999
4 12 1.075527 4.699999999999999
4 13 0.836521 4.699999999999999
4 14 0.7409186 4.699999999999999
4 15 1.075527 4.699999999999999
4 16 1.075527 4.699999999999999
4 17 0.956024 4.699999999999999
5 5 0.836521 4.699999999999999
5 6 0.836521 4.699999999999999
5 7 0.7409186 4.699999999999999
5 8 0.836521 4.699999999999999
5 9 0.6453162 4.699999999999999
5 10 0.7409186 4.699999999999999
5 11 0.5497137999999999 4.699999999999999
5 12 0.6453162 4.699999999999999
5 13 0.7409186 4.699999999999999
5 14 0.7409186 4.699999999999999
5 15 0.7409186 4.699999999999999
5 16 0.7409186 4.699999999999999
5 17 0.6453162 4.699999999999999
6 6 0.836521 4.699999999999999
6 7 0.836521 4.699999999999999
6 8 0.836521 4.699999999999999
6 9 0.6453162 4.699999999999999
6 10 0.836521 4.699999999999999
6 11 0.6453162 4.699999999999999
6 12 0.6453162 4.699999999999999
6 13 0.836521 4.699999999999999
6 14 0.836521 4.699999999999999
6 15 0.836521 4.699999999999999
6 16 0.836521 4.699999999999999
6 17 0.6453162 4.699999999999999
7 7 0.836521 4.699999999999999
7 8 0.6453162 4.699999999999999
7 9 0.836521 4.699999999999999
7 10 0.836521 4.699999999999999
7 11 0.836521 4.699999999999999
7 12 0.836521 4.699999999999999
7 13 0.836521 4.699999999999999
7 14 0.836521 4.699999999999999
7 15 0.956024 4.699999999999999
7 16 0.956024 4.699999999999999
7 17 0.836521 4.699999999999999
8 8 0.836521 4.699999999999999
8 9 0.6453162 4.699999999999999
8 10 0.7409186 4.699999999999999
8 11 0.478012 4.699999999999999
8 12 0.6453162 4.699999999999999
8 13 0.7409186 4.699999999999999
8 14 0.7409186 4.699999999999999
8 15 0.6453162 4.699999999999999
8 16 0.6453162 4.699999999999999
8 17 0.6453162 4.699999999999999
9 9 0.956024 4.699999999999999
9 10 0.836521 4.699999999999999
9 11 0.956024 4.699999999999999
9 12 1.075527 4.699999999999999
9 13 0.836521 4.699999999999999
9 14 0.7409186 4.699999999999999
9 15 1.075527 4.699999999999999
9 16 1.075527 4.699999999999999
9 17 1.075527 4.699999999999999
10 10 0.62739075 4.3
10 11 0.7409186 4.699999999999999
10 12 0.836521 4.699999999999999
10 13 0.836521 4.699999999999999
10 14 0.62739075 4.3
10 15 0.62739075 4.3
10 16 0.836521 4.699999999999999
10 17 0.62739075 4.3
11 11 1.19503 4.699999999999999
11 12 0.956024 4.699999999999999
11 13 0.7409186 4.699999999999999
11 14 0.6453162 4.699999999999999
11 15 1.075527 4.699999999999999
11 16 1.075527 4.699999999999999
11 17 0.956024 4.699999999999999
12 12 1.075527 4.699999999999999
12 13 0.836521 4.699999999999999
12 14 0.7409186 4.699999999999999
12 15 1.075527 4.699999999999999
12 16 1.075527 4.699999999999999
12 17 1.075527 4.699999999999999
13 13 0.836521 4.699999999999999
13 14 0.836521 4.699999999999999
13 15 0.836521 4.699999999999999
13 16 0.836521 4.699999999999999
13 17 0.836521 4.699999999999999
14 14 0.62739075 4.3
14 15 0.62739075 4.3
14 16 0.836521 4.699999999999999
14 17 0.5556889500000001 4.3
15 15 0.80664525 4.3
15 16 1.075527 4.699999999999999
15 17 0.80664525 4.3
16 16 1.075527 4.699999999999999
16 17 1.075527 4.699999999999999
17 17 0.7170179999999999 4.3

Bond Coeffs

1 1.4937875 3.5
2 8.962725 3.2
3 5.97515 4.0
4 5.97515 3.3000000000000003
5 5.97515 2.8000000000000003
6 8.962725 3.1
7 8.962725 3.0
8 5.97515 3.2
9 8.962725 3.3000000000000003
10 5.97515 3.4000000000000004
11 5.97515 3.0
12 2.987575 4.0
13 11.9503 3.3000000000000003
14 11.9503 3.1
15 11.9503 2.6500000000000004
16 11.9503 2.7
17 11.9503 2.6

Angle Coeffs

1 2.39006 127
2 83.6521 96
3 2.39006 100
4 2.39006 130
5 11.9503 98
6 2.987575 100
7 2.987575 180
8 5.97515 150
9 5.97515 210
10 5.97515 90

Dihedral Coeffs

1 95.6024 1 -120 0

Improper Coeffs

1 5.97515 0
2 23.9006 0

Atoms

1 1 1 1.0000 1.2549999 -0.027 -48.818
2 1 2 0.0000 0.0617986 0.057581596 -51.0684
3 1 3 -1.0000 -1.04115 -1.00815 -52.940998
4 1 4 0.0000 1.8392301 2.0306299 -54.3647
5 1 5 0.0000 2.8448 0.33185798 -55.8526
6 1 4 0.0000 1.6912601 5.17367 -54.6183
7 1 3 -1.0000 -2.13248 6.07679 -55.867302
8 1 4 0.0000 4.49416 5.9651 -55.9061
9 1 6 0.0000 6.99194 4.27906 -55.0783
10 1 1 1.0000 7.47431 2.6248403 -57.2809
11 1 4 0.0000 3.99873 4.61328 -59.1506
12 1 7 0.0000 1.58039 6.90352 -60.016598
13 1 6 0.0000 -1.50317 6.74468 -61.429703
14 1 1 1.0000 -3.99917 6.4366198 -60.096203
15 1 7 0.0000 3.4788501 9.53241 -59.3054
16 1 6 0.0000 2.28887 11.1261 -56.4052
17 1 1 1.0000 0.285205 9.59068 -54.7941
18 1 7 0.0000 6.0299597 8.984241 -61.469597
19 1 8 0.0000 8.3766 7.15147 -60.398598
20 1 9 0.0000 4.32201 9.50593 -64.1445
21 1 10 0.0000 5.04026 9.3181305 -67.567604
22 1 10 0.0000 4.52423 9.78145 -70.0781
23 1 10 0.0000 7.02601 8.73635 -69.3278
24 1 9 0.0000 3.41691 12.5696 -63.719402
25 1 5 0.0000 1.8087301 14.517099 -64.0846
26 1 9 0.0000 6.46158 13.829 -63.095898
27 1 11 0.0000 5.3569603 17.5569 -64.6517
28 1 9 0.0000 7.8747997 12.9115 -66.0467
29 1 6 0.0000 9.51536 10.2213 -65.5061
30 1 1 1.0000 11.156 8.83261 -64.0479
31 1 12 0.0000 6.63557 13.9637 -69.1616
32 1 13 0.0000 9.023029 14.0711 -71.1857
33 1 7 0.0000 3.53786 14.3434 -68.6695
34 1 12 0.0000 0.774528 12.590199 -68.2969
35 1 11 0.0000 -1.41717 15.9556 -68.5244
36 1 12 0.0000 -0.0993801 12.280199 -71.5443
37 1 13 0.0000 -0.777899 15.7757 -71.490105
38 1 2 0.0000 -0.616414 9.26133 -71.6583
39 1 14 0.0000 1.9211199 7.48039 -72.574905
40 1 15 0.0000 3.7262602 5.59537 -72.5891
41 1 15 0.0000 4.11803 7.4569397 -74.1913
42 1 2 0.0000 -3.89092 7.49099 -71.4812
43 1 16 0.0000 -4.6679 8.19754 -73.7338
44 1 2 0.0000 -4.5363703 6.9914002 -68.396
45 1 5 0.0000 -3.15903 4.82224 -67.612
46 1 2 0.0000 -6.4526896 6.56282 -64.8432
47 1 3 -1.0000 -5.73026 10.0084 -62.9361
48 1 12 0.0000 -10.2943 4.1567903 -64.3012
49 1 6 0.0000 -11.750401 2.4876502 -61.651
50 1 1 1.0000 -11.4744 1.77439 -58.8373
51 1 12 0.0000 -12.960401 5.26322 -66.5862
52 1 2 0.0000 -10.0063 8.077909 -67.2913
53 1 2 0.0000 -9.98763 11.0483 -65.735695
54 1 6 0.0000 -10.647301 9.18734 -62.8754
55 1 1 1.0000 -9.1057005 7.7231402 -60.749603
56 1 2 0.0000 -9.149839 13.319799 -70.1904
57 1 14 0.0000 -10.1772995 10.6506 -72.0801
58 1 15 0.0000 -9.06319 8.43816 -72.2434
59 1 15 0.0000 -11.796301 8.40264 -71.8205
60 1 2 0.0000 -5.19638 13.0274 -71.9001
61 1 6 0.0000 -4.37988 12.002601 -69.0924
62 1 1 1.0000 -3.46995 11.6706 -66.661
63 1 2 0.0000 -3.93406 12.6073 -75.948
64 1 16 0.0000 -4.13498 15.1197 -76.619804
65 1 2 0.0000 -1.02293 10.9972 -76.5344
66 1 11 0.0000 -0.0231658 7.1403303 -77.0231
67 1 6 0.0000 1.44458 6.1123104 -79.1788
68 1 2 0.0000 -1.3882301 4.85819 -75.376
69 1 2 0.0000 -4.07263 4.10601 -77.0261
70 1 2 0.0000 -2.1401901 2.3664 -72.649796
71 1 8 0.0000 0.259928 2.36379 -70.4411
72 1 12 0.0000 -5.96211 2.64317 -73.9973
73 1 14 0.0000 -7.23784 3.4393501 -71.7053
74 1 15 0.0000 -9.46718 4.13625 -70.334404
75 1 15 0.0000 -7.38559 3.33714 -68.9463
76 1 12 0.0000 -7.38375 -1.07935 -73.4909
77 1 2 0.0000 -5.1919103 -2.13648 -71.169
78 1 8 0.0000 -4.03948 -0.471729 -68.7592
79 1 12 0.0000 -5.9632497 -4.92753 -70.016396
80 1 10 0.0000 -4.96356 -5.9877005 -67.156
81 1 10 0.0000 -4.00148 -5.10366 -64.9185
82 1 10 0.0000 -6.25683 -6.8276796 -64.8174
83 1 12 0.0000 -5.23781 -7.79101 -72.7787
84 1 2 0.0000 -4.92447 -6.9698696 -76.4623
85 1 7 0.0000 -3.42166 -4.10171 -75.8456
86 1 1 1.0000 -3.71364 -0.83798105 -76.5669
87 1 2 0.0000 -3.56006 -7.7545 -79.4384
88 1 6 0.0000 -0.75727904 -8.98723 -80.1767
89 1 1 1.0000 0.40303499 -11.2216 -80.6462
90 1 12 0.0000 -1.91621 -4.01184 -80.0977
91 1 16 0.0000 0.36961102 -3.81408 -78.8003
92 1 12 0.0000 -5.35737 -3.3681 -81.06439
93 1 2 0.0000 -7.36306 -1.13803 -79.5233
94 1 11 0.0000 -8.88435 -3.54869 -77.4563
95 1 11 0.0000 -8.58558 1.62203 -78.7117
96 1 7 0.0000 -10.0905 4.26616 -76.2554
97 1 6 0.0000 -12.180901 2.5958202 -74.886696
98 1 12 0.0000 -8.4916 7.1996098 -77.224205
99 1 2 0.0000 -7.9970303 5.5547 -80.970695
100 1 10 0.0000 -7.31169 7.7702 -82.8555
101 1 10 0.0000 -5.4479403 7.91016 -84.854004
102 1 10 0.0000 -7.0265503 9.74263 -84.370804
103 1 2 0.0000 -4.63505 3.6205301 -82.1187
104 1 16 0.0000 -5.46889 1.82334 -83.8571
105 1 2 0.0000 -1.95251 5.38873 -82.5879
106 1 14 0.0000 -2.99725 8.49253 -81.0235
107 1 14 0.0000 -4.5830803 9.2986 -79.566696
108 1 15 0.0000 -3.6931 11.0841 -81.3546
109 1 2 0.0000 -1.17768 4.92662 -85.5119
110 1 16 0.0000 -2.10532 6.0606403 -87.6657
111 1 4 0.0000 1.4797499 3.1314 -85.8004
112 1 3 -1.0000 2.33055 1.5436 -88.1448
113 1 7 0.0000 2.43657 2.3438401 -83.0699
114 1 12 0.0000 -0.33373898 0.67772996 -82.0311
115 1 2 0.0000 -0.00641156 1.51097 -78.9467
116 1 12 0.0000 -0.48780698 -1.62337 -84.196396
117 1 6 0.0000 -1.9557799 -0.64821804 -86.59331
118 1 1 1.0000 -1.7685901 0.20501001 -89.0822
119 1 9 0.0000 2.71111 -3.17666 -83.2594
120 1 2 0.0000 3.93734 -3.5798697 -86.2415
121 1 2 0.0000 4.79001 -5.55179 -81.68021
122 1 6 0.0000 7.96255 -4.72729 -81.2201
123 1 1 1.0000 10.1799 -4.98028 -79.2478
124 1 2 0.0000 3.73196 -7.27961 -79.6326
125 1 2 0.0000 2.78337 -8.08314 -76.5478
126 1 8 0.0000 2.85151 -11.1833 -76.6523
127 1 2 0.0000 0.020673899 -8.19712 -73.7058
128 1 16 0.0000 -1.1645399 -10.2949 -74.8741
129 1 2 0.0000 -1.08824 -8.33295 -70.2454
130 1 14 0.0000 -1.0474 -4.91658 -70.5483
131 1 17 0.0000 -0.175115 -2.80657 -71.8641
132 1 10 0.0000 0.29363698 -5.2072 -73.2162
133 1 10 0.0000 0.79237795 -2.7370799 -73.9555
134 1 2 0.0000 0.57960904 -8.62461 -66.724
135 1 6 0.0000 2.99395 -10.871 -67.7257
136 1 1 1.0000 4.99026 -11.757999 -65.4423
137 1 4 0.0000 2.75872 -6.55613 -65.703705
138 1 3 -1.0000 5.27118 -7.7816896 -62.8163
139 1 4 0.0000 5.3196597 -7.62404 -67.6594
140 1 3 -1.0000 6.57531 -7.99659 -63.530403
141 1 4 0.0000 4.50395 -6.0939903 -70.7579
142 1 16 0.0000 4.89828 -8.2309 -72.2908
143 1 12 0.0000 4.70933 -3.3118799 -69.5582
144 1 8 0.0000 3.8821502 -0.62852895 -70.1263
145 1 9 0.0000 7.9058 -3.2581801 -68.8721
146 1 13 0.0000 10.464899 -5.90308 -66.4757
147 1 9 0.0000 9.20036 -3.46652 -71.5912
148 1 3 -1.0000 12.1262 -3.7834902 -74.6262
149 1 9 0.0000 7.82212 -0.506132 -72.6013
150 1 14 0.0000 5.2907 1.16983 -74.4509
151 1 14 0.0000 4.65791 2.89127 -76.3814
152 1 15 0.0000 2.72439 1.33919 -74.9009
153 1 12 0.0000 9.22368 1.60236 -70.9278
154 1 8 0.0000 6.9276 3.6595602 -70.0436
155 1 12 0.0000 12.6075 0.64962995 -72.3191
156 1 3 -1.0000 16.1904 0.21378699 -70.9027
157 1 2 0.0000 13.330601 2.7235901 -73.965904
158 1 2 0.0000 15.7777 4.76012 -73.9338
159 1 7 0.0000 10.1079 3.6877398 -75.5128
160 1 6 0.0000 8.703529 5.70698 -74.0786
161 1 12 0.0000 11.3937 3.1611 -78.6738
162 1 6 0.0000 12.617001 6.54249 -79.2835
163 1 1 1.0000 12.041599 9.08038 -78.084305
164 1 12 0.0000 11.5206 -0.0057307 -78.7274
165 1 6 0.0000 14.7039995 -0.566005 -77.6326
166 1 1 1.0000 16.065 -1.38888 -75.0811
167 1 12 0.0000 8.53561 -0.546858 -77.9253
168 1 14 0.0000 6.8346 -2.9412298 -76.4486
169 1 14 0.0000 4.7677903 -3.6340902 -75.1226
170 1 15 0.0000 7.04432 -5.35124 -75.5867
171 1 2 0.0000 6.47078 0.582838 -80.0591
172 1 8 0.0000 4.11261 -1.26966 -79.0795
173 1 7 0.0000 6.86003 0.0492062 -82.9525
174 1 6 0.0000 8.69901 -0.86458 -84.9162
175 1 12 0.0000 9.02577 3.6495101 -82.7322
176 1 2 0.0000 6.12436 5.1840596 -81.149994
177 1 16 0.0000 7.36254 6.23769 -78.9618
178 1 2 0.0000 5.05149 6.8011703 -83.80141
179 1 6 0.0000 6.76549 5.02899 -85.7715
180 1 1 1.0000 6.6962 2.7389402 -87.8231
181 1 2 0.0000 2.7700999 8.71381 -83.5485
182 1 13 0.0000 1.8269099 8.84439 -86.883095
183 1 2 0.0000 1.4873201 10.9341 -81.136505
184 1 8 0.0000 1.08261 14.0951 -80.990295
185 1 2 0.0000 4.30531 10.9268 -77.8504
186 1 10 0.0000 3.0399501 13.3501005 -76.2674
187 1 10 0.0000 3.47446 15.615999 -74.825905
188 1 10 0.0000 1.1088 15.496201 -76.248695
189 1 11 0.0000 7.4302297 10.3467 -76.6886
190 1 2 0.0000 8.46642 10.4248 -74.0443
191 1 2 0.0000 11.0471 8.78075 -71.9484
192 1 8 0.0000 12.844501 10.4913 -70.3528
193 1 2 0.0000 11.6967 5.21954 -68.5155
194 1 6 0.0000 14.2386 5.039 -69.6631
195 1 1 1.0000 16.7145 4.18892 -68.7287
196 1 2 0.0000 15.198999 1.4439299 -66.031
197 1 6 0.0000 17.7878 2.36118 -63.766598
198 1 1 1.0000 17.4453 3.64288 -61.499702
199 1 4 0.0000 14.2561 -1.10542 -63.6809
200 1 6 0.0000 11.7454 -3.49653 -62.381702
201 1 1 1.0000 8.83039 -4.5696397 -61.8409
202 1 4 0.0000 12.7422 0.989568 -61.538803
203 1 16 0.0000 12.007299 0.234835 -59.321598
204 1 4 0.0000 12.0055 3.1926 -63.789402
205 1 3 -1.0000 14.6181 6.1264496 -64.569405
206 1 4 0.0000 10.3574 1.1794801 -65.5402
207 1 7 0.0000 11.8078 -1.05544 -67.9096
208 1 1 1.0000 13.374701 -3.16471 -69.7155
209 1 7 0.0000 8.656341 -0.0516894 -63.559
210 1 3 -1.0000 6.83879 -1.20883 -59.7109
211 1 7 0.0000 7.0717697 2.4377701 -62.3175
212 1 3 -1.0000 6.19144 -0.71926 -59.9633
213 1 7 0.0000 5.63089 2.96873 -65.2512
214 1 8 0.0000 7.12947 5.71487 -65.5134
215 1 7 0.0000 4.31847 -0.0150382 -64.9997
216 1 8 0.0000 5.29004 -2.59089 -64.858696
217 1 13 0.0000 2.64615 0.988679 -62.1196
218 1 7 0.0000 0.71976805 3.03288 -63.690903
219 1 14 0.0000 1.40579 5.45881 -65.2508
220 1 14 0.0000 2.2498 5.88562 -67.748
221 1 15 0.0000 0.604484 7.74401 -66.9179
222 1 7 0.0000 -0.648906 0.507809 -65.493004
223 1 8 0.0000 0.46458697 -2.04639 -66.8298
224 1 7 0.0000 -1.71366 -1.08603 -63.0587
225 1 6 0.0000 0.47830898 -3.24504 -62.0979
226 1 1 1.0000 3.3007898 -4.14789 -60.9135
227 1 9 0.0000 -3.24577 1.44122 -61.7555
228 1 6 0.0000 -2.8857698 1.44312 -58.4265
229 1 1 1.0000 -4.14727 2.08551 -56.4514
230 1 7 0.0000 -5.3126 2.05231 -64.2356
231 1 9 0.0000 -6.94964 -0.847271 -64.204605
232 1 16 0.0000 -8.3633 -1.39414 -66.7888
233 1 9 0.0000 -7.90087 -0.570916 -61.083797
234 1 2 0.0000 -6.7390003 -1.9026899 -58.611103
235 1 3 -1.0000 -7.43809 3.12582 -60.4236
236 1 3 -1.0000 -7.81743 4.89141 -57.4542

Bonds

1 1 1 2
2 1 31 33
3 1 33 34
4 1 34 36
5 1 36 38
6 1 38 42
7 1 42 44
8 1 44 46
9 1 46 48
10 1 48 51
11 1 51 52
12 1 52 53
13 1 53 56
14 1 56 60
15 1 60 63
16 1 63 65
17 1 65 66
18 1 66 68
19 1 68 70
20 1 70 72
21 1 72 76
22 1 76 77
23 1 77 79
24 1 79 83
25 1 83 84
26 1 84 87
27 1 87 90
28 1 90 92
29 1 92 93
30 1 93 95
31 1 95 96
32 1 96 98
33 1 98 99
34 1 99 103
35 1 103 105
36 1 105 109
37 1 121 124
38 1 124 125
39 1 125 127
40 1 127 129
41 1 129 134
42 1 153 155
43 1 155 157
44 1 171 173
45 1 173 175
46 1 175 176
47 1 176 178
48 1 178 181
49 1 181 183
50 1 183 185
51 1 185 189
52 1 189 190
53 1 190 191
54 1 191 193
55 1 193 196
56 2 2 3
57 3 6 7
58 4 8 9
59 5 9 10
60 4 12 13
61 5 13 14
62 4 15 16
63 5 16 17
64 6 20 21
65 3 26 27
66 4 28 29
67 5 29 30
68 6 31 32
69 3 34 35
70 6 36 37
71 2 38 39
72 3 46 47
73 4 48 49
74 5 49 50
75 4 53 54
76 5 54 55
77 2 56 57
78 4 60 61
79 5 61 62
80 7 66 67
81 8 68 69
82 9 70 71
83 2 72 73
84 9 77 78
85 6 79 80
86 4 84 85
87 10 85 86
88 4 87 88
89 5 88 89
90 3 93 94
91 7 96 97
92 6 99 100
93 8 105 106
94 2 111 112
95 8 114 115
96 4 116 117
97 5 117 118
98 8 119 120
99 4 121 122
100 5 122 123
101 11 129 130
102 4 134 135
103 5 135 136
104 3 137 138
105 3 139 140
106 9 143 144
107 12 145 146
108 3 147 148
109 8 149 150
110 9 153 154
111 3 155 156
112 8 157 158
113 7 159 160
114 4 161 162
115 5 162 163
116 4 164 165
117 5 165 166
118 8 167 168
119 7 173 174
120 4 178 179
121 5 179 180
122 12 181 182
123 6 185 186
124 4 193 194
125 5 194 195
126 4 196 197
127 5 197 198
128 4 199 200
129 5 200 201
130 3 204 205
131 4 206 207
132 10 207 208
133 3 209 210
134 2 211 212
135 9 213 214
136 8 218 219
137 9 222 223
138 4 224 225
139 5 225 226
140 4 227 228
141 5 228 229
142 8 233 234
143 3 235 236
144 13 2 4
145 14 4 6
146 14 6 8
147 14 8 11
148 14 11 12
149 14 12 15
150 14 15 18
151 14 18 20
152 14 20 24
153 14 24 26
154 14 26 28
155 13 28 31
156 13 109 111
157 14 111 113
158 14 113 114
159 14 114 116
160 14 116 119
161 13 119 121
162 13 134 137
163 14 137 139
164 14 139 141
165 14 141 143
166 14 143 145
167 14 145 147
168 14 147 149
169 13 149 153
170 13 157 159
171 14 159 161
172 14 161 164
173 14 164 167
174 13 167 171
175 13 196 199
176 14 199 202
177 14 202 204
178 14 204 206
179 14 206 209
180 14 209 211
181 14 211 213
182 14 213 215
183 14 215 217
184 14 217 218
185 14 218 222
186 14 222 224
187 14 224 227
188 14 227 230
189 14 230 231
190 14 231 233
191 13 233 235
192 15 4 5
193 14 18 19
194 16 21 22
195 16 21 23
196 16 22 23
197 15 24 25
198 16 39 40
199 16 39 41
200 16 40 41
201 17 42 43
202 15 44 45
203 16 57 58
204 16 57 59
205 16 58 59
206 17 63 64
207 16 73 74
208 16 73 75
209 16 74 75
210 16 80 81
211 16 80 82
212 16 81 82
213 17 90 91
214 16 100 101
215 16 100 102
216 16 101 102
217 17 103 104
218 16 106 107
219 16 106 108
220 16 107 108
221 17 109 110
222 14 125 126
223 17 127 128
224 16 130 131
225 16 130 132
226 16 131 132
227 16 131 133
228 16 132 133
229 17 141 142
230 16 150 151
231 16 150 152
232 16 151 152
233 16 168 169
234 16 168 170
235 16 169 170
236 14 171 172
237 17 176 177
238 14 183 184
239 16 186 187
240 16 186 188
241 16 187 188
242 14 191 192
243 17 202 203
244 14 215 216
245 16 219 220
246 16 219 221
247 16 220 221
248 17 231 232

Angles

1 1 1 2 4
2 1 2 4 6
3 2 4 6 8
4 2 6 8 11
5 2 8 11 12
6 2 11 12 15
7 2 12 15 18
8 2 15 18 20
9 2 18 20 24
10 2 20 24 26
11 2 24 26 28
12 3 26 28 31
13 3 28 31 33
14 3 31 33 34
15 3 33 34 36
16 3 34 36 38
17 3 36 38 42
18 1 38 42 44
19 1 42 44 46
20 3 44 46 48
21 3 46 48 51
22 3 48 51 52
23 3 51 52 53
24 1 52 53 56
25 1 53 56 60
26 1 56 60 63
27 1 60 63 65
28 4 63 65 66
29 1 65 66 68
30 1 66 68 70
31 3 68 70 72
32 3 70 72 76
33 3 72 76 77
34 3 76 77 79
35 3 77 79 83
36 3 79 83 84
37 3 83 84 87
38 3 84 87 90
39 3 87 90 92
40 3 90 92 93
41 3 92 93 95
42 1 93 95 96
43 3 95 96 98
44 3 96 98 99
45 3 98 99 103
46 1 99 103 105
47 1 103 105 109
48 1 105 109 111
49 1 109 111 113
50 2 111 113 114
51 2 113 114 116
52 2 114 116 119
53 1 116 119 121
54 1 119 121 124
55 1 121 124 125
56 1 124 125 127
57 1 125 127 129
58 1 127 129 134
59 1 129 134 137
60 4 134 137 139
61 2 137 139 141
62 2 139 141 143
63 2 141 143 145
64 2 143 145 147
65 2 145 147 149
66 3 147 149 153
67 3 149 153 155
68 3 153 155 157
69 3 155 157 159
70 5 157 159 161
71 5 159 161 164
72 2 161 164 167
73 4 164 167 171
74 4 167 171 173
75 3 171 173 175
76 3 173 175 176
77 3 175 176 178
78 1 176 178 181
79 1 178 181 183
80 1 181 183 185
81 1 183 185 189
82 1 185 189 190
83 1 189 190 191
84 1 190 191 193
85 1 191 193 196
86 1 193 196 199
87 4 196 199 202
88 2 199 202 204
89 2 202 204 206
90 2 204 206 209
91 2 206 209 211
92 2 209 211 213
93 2 211 213 215
94 2 213 215 217
95 2 215 217 218
96 2 217 218 222
97 2 218 222 224
98 2 222 224 227
99 2 224 227 230
100 2 227 230 231
101 2 230 231 233
102 1 231 233 235
103 6 1 2 3
104 6 2 4 5
105 6 4 6 7
106 6 6 8 9
107 6 11 12 13
108 6 12 15 16
109 6 15 18 19
110 6 18 20 21
111 6 20 24 25
112 6 24 26 27
113 6 26 28 29
114 6 28 31 32
115 6 33 34 35
116 6 34 36 37
117 6 36 38 39
118 6 38 42 43
119 6 42 44 45
120 6 44 46 47
121 6 46 48 49
122 6 52 53 54
123 6 53 56 57
124 6 56 60 61
125 6 60 63 64
126 6 65 66 67
127 6 66 68 69
128 6 68 70 71
129 6 70 72 73
130 6 76 77 78
131 6 77 79 80
132 6 83 84 85
133 6 84 87 88
134 6 87 90 91
135 6 92 93 94
136 6 95 96 97
137 6 98 99 100
138 6 99 103 104
139 6 103 105 106
140 6 105 109 110
141 6 109 111 112
142 6 113 114 115
143 6 114 116 117
144 6 116 119 120
145 6 119 121 122
146 6 124 125 126
147 6 125 127 128
148 6 127 129 130
149 6 129 134 135
150 6 134 137 138
151 6 137 139 140
152 6 139 141 142
153 6 141 143 144
154 6 143 145 146
155 6 145 147 148
156 6 147 149 150
157 6 149 153 154
158 6 153 155 156
159 6 155 157 158
160 6 157 159 160
161 6 159 161 162
162 6 161 164 165
163 6 164 167 168
164 6 167 171 172
165 6 171 173 174
166 6 175 176 177
167 6 176 178 179
168 6 178 181 182
169 6 181 183 184
170 6 183 185 186
171 6 190 191 192
172 6 191 193 194
173 6 193 196 197
174 6 196 199 200
175 6 199 202 203
176 6 202 204 205
177 6 204 206 207
178 6 206 209 210
179 6 209 211 212
180 6 211 213 214
181 6 213 215 216
182 6 217 218 219
183 6 218 222 223
184 6 222 224 225
185 6 224 227 228
186 6 230 231 232
187 6 231 233 234
188 6 233 235 236
189 7 8 9 10
190 7 12 13 14
191 7 15 16 17
192 8 20 21 22
193 8 20 21 23
194 7 28 29 30
195 8 38 39 40
196 8 38 39 41
197 7 48 49 50
198 7 53 54 55
199 8 56 57 58
200 8 56 57 59
201 7 60 61 62
202 8 72 73 74
203 8 72 73 75
204 8 79 80 81
205 8 79 80 82
206 7 84 85 86
207 7 87 88 89
208 8 99 100 101
209 8 99 100 102
210 8 105 106 107
211 8 105 106 108
212 7 116 117 118
213 7 121 122 123
214 9 129 130 131
215 10 129 130 132
216 7 134 135 136
217 8 149 150 151
218 8 149 150 152
219 7 161 162 163
220 7 164 165 166
221 8 167 168 169
222 8 167 168 170
223 7 178 179 180
224 8 185 186 187
225 8 185 186 188
226 7 193 194 195
227 7 196 197 198
228 7 199 200 201
229 7 206 207 208
230 8 218 219 220
231 8 218 219 221
232 7 224 225 226
233 7 227 228 229

Dihedrals

1 1 4 6 8 11
2 1 6 8 11 12
3 1 8 11 12 15
4 1 11 12 15 18
5 1 12 15 18 20
6 1 15 18 20 24
7 1 18 20 24 26
8 1 20 24 26 28
9 1 111 113 114 116
10 1 113 114 116 119
11 1 137 139 141 143
12 1 139 141 143 145
13 1 141 143 145 147
14 1 143 145 147 149
15 1 159 161 164 167
16 1 199 202 204 206
17 1 202 204 206 209
18 1 204 206 209 211
19 1 206 209 211 213
20 1 209 211 213 215
21 1 211 213 215 217
22 1 213 215 217 218
23 1 215 217 218 222
24 1 217 218 222 224
25 1 218 222 224 227
26 1 222 224 227 230
27 1 224 227 230 231
28 1 227 230 231 233

Impropers

1 1 20 22 23 21
2 1 38 40 41 39
3 1 56 58 59 57
4 1 72 74 75 73
5 1 79 81 82 80
6 1 99 101 102 100
7 1 105 107 108 106
8 1 129 131 132 130
9 2 130 131 133 132
10 1 149 151 152 150
11 1 167 169 170 168
12 1 185 187 188 186
13 1 218 220 221 219

