comment

236 atoms
248 bonds
233 angles
28 dihedrals
13 impropers

17 atom types
17 bond types
10 angle types
1 dihedral types
2 improper types

-40.5 40.5 xlo xhi
-40.5 40.5 ylo yhi
-190.0 190.0 zlo zhi

Masses

1 72.0
2 72.0
3 72.0
4 72.0
5 72.0
6 72.0
7 72.0
8 72.0
9 72.0
10 45.0
11 72.0
12 72.0
13 72.0
14 45.0
15 45.0
16 72.0
17 45.0

PairIJ Coeffs

1 1 1.19503 4.699999999999999
1 2 1.3384336 4.699999999999999
1 3 1.3384336 4.699999999999999
1 4 0.956024 4.699999999999999
1 5 0.478012 4.699999999999999
1 6 0.5497137999999999 4.699999999999999
1 7 0.836521 4.699999999999999
1 8 0.478012 4.699999999999999
1 9 1.19503 4.699999999999999
1 10 0.7409186 4.699999999999999
1 11 1.3384336 4.699999999999999
1 12 1.19503 4.699999999999999
1 13 0.7409186 4.699999999999999
1 14 0.6453162 4.699999999999999
1 15 1.19503 4.699999999999999
1 16 1.19503 4.699999999999999
1 17 0.956024 4.699999999999999
2 2 1.3384336 4.699999999999999
2 3 1.3384336 4.699999999999999
2 4 1.19503 4.699999999999999
2 5 0.5497137999999999 4.699999999999999
2 6 0.6453162 4.699999999999999
2 7 0.836521 4.699999999999999
2 8 0.478012 4.699999999999999
2 9 1.19503 4.699999999999999
2 10 0.7409186 4.699999999999999
2 11 1.3384336 4.699999999999999
2 12 1.19503 4.699999999999999
2 13 0.7409186 4.699999999999999
2 14 0.6453162 4.699999999999999
2 15 1.3384336 4.699999999999999
2 16 1.3384336 4.699999999999999
2 17 1.19503 4.699999999999999
3 3 1.19503 4.699999999999999
3 4 1.19503 4.699999999999999
3 5 0.478012 4.699999999999999
3 6 0.5497137999999999 4.699999999999999
3 7 0.836521 4.699999999999999
3 8 0.478012 4.699999999999999
3 9 0.956024 4.699999999999999
3 10 0.7409186 4.699999999999999
3 11 1.3384336 4.699999999999999
3 12 1.19503 4.699999999999999
3 13 0.7409186 4.699999999999999
3 14 0.6453162 4.699999999999999
3 15 1.19503 4.699999999999999
3 16 1.19503 4.699999999999999
3 17 1.19503 4.699999999999999
4 4 0.956024 4.699999999999999
4 5 0.6453162 4.699999999999999
4 6 0.6453162 4.699999999999999
4 7 0.836521 4.699999999999999
4 8 0.6453162 4.699999999999999
4 9 1.075527 4.699999999999999
4 10 0.836521 4.699999999999999
4 11 0.956024 4.699999999999999
4 12 1.075527 4.699999999999999
4 13 0.836521 4.699999999999999
4 14 0.7409186 4.699999999999999
4 15 1.075527 4.699999999999999
4 16 1.075527 4.699999999999999
4 17 0.956024 4.699999999999999
5 5 0.836521 4.699999999999999
5 6 0.836521 4.699999999999999
5 7 0.7409186 4.699999999999999
5 8 0.836521 4.699999999999999
5 9 0.6453162 4.699999999999999
5 10 0.7409186 4.699999999999999
5 11 0.5497137999999999 4.699999999999999
5 12 0.6453162 4.699999999999999
5 13 0.7409186 4.699999999999999
5 14 0.7409186 4.699999999999999
5 15 0.7409186 4.699999999999999
5 16 0.7409186 4.699999999999999
5 17 0.6453162 4.699999999999999
6 6 0.836521 4.699999999999999
6 7 0.836521 4.699999999999999
6 8 0.836521 4.699999999999999
6 9 0.6453162 4.699999999999999
6 10 0.836521 4.699999999999999
6 11 0.6453162 4.699999999999999
6 12 0.6453162 4.699999999999999
6 13 0.836521 4.699999999999999
6 14 0.836521 4.699999999999999
6 15 0.836521 4.699999999999999
6 16 0.836521 4.699999999999999
6 17 0.6453162 4.699999999999999
7 7 0.836521 4.699999999999999
7 8 0.6453162 4.699999999999999
7 9 0.836521 4.699999999999999
7 10 0.836521 4.699999999999999
7 11 0.836521 4.699999999999999
7 12 0.836521 4.699999999999999
7 13 0.836521 4.699999999999999
7 14 0.836521 4.699999999999999
7 15 0.956024 4.699999999999999
7 16 0.956024 4.699999999999999
7 17 0.836521 4.699999999999999
8 8 0.836521 4.699999999999999
8 9 0.6453162 4.699999999999999
8 10 0.7409186 4.699999999999999
8 11 0.478012 4.699999999999999
8 12 0.6453162 4.699999999999999
8 13 0.7409186 4.699999999999999
8 14 0.7409186 4.699999999999999
8 15 0.6453162 4.699999999999999
8 16 0.6453162 4.699999999999999
8 17 0.6453162 4.699999999999999
9 9 0.956024 4.699999999999999
9 10 0.836521 4.699999999999999
9 11 0.956024 4.699999999999999
9 12 1.075527 4.699999999999999
9 13 0.836521 4.699999999999999
9 14 0.7409186 4.699999999999999
9 15 1.075527 4.699999999999999
9 16 1.075527 4.699999999999999
9 17 1.075527 4.699999999999999
10 10 0.62739075 4.3
10 11 0.7409186 4.699999999999999
10 12 0.836521 4.699999999999999
10 13 0.836521 4.699999999999999
10 14 0.62739075 4.3
10 15 0.62739075 4.3
10 16 0.836521 4.699999999999999
10 17 0.62739075 4.3
11 11 1.19503 4.699999999999999
11 12 0.956024 4.699999999999999
11 13 0.7409186 4.699999999999999
11 14 0.6453162 4.699999999999999
11 15 1.075527 4.699999999999999
11 16 1.075527 4.699999999999999
11 17 0.956024 4.699999999999999
12 12 1.075527 4.699999999999999
12 13 0.836521 4.699999999999999
12 14 0.7409186 4.699999999999999
12 15 1.075527 4.699999999999999
12 16 1.075527 4.699999999999999
12 17 1.075527 4.699999999999999
13 13 0.836521 4.699999999999999
13 14 0.836521 4.699999999999999
13 15 0.836521 4.699999999999999
13 16 0.836521 4.699999999999999
13 17 0.836521 4.699999999999999
14 14 0.62739075 4.3
14 15 0.62739075 4.3
14 16 0.836521 4.699999999999999
14 17 0.5556889500000001 4.3
15 15 0.80664525 4.3
15 16 1.075527 4.699999999999999
15 17 0.80664525 4.3
16 16 1.075527 4.699999999999999
16 17 1.075527 4.699999999999999
17 17 0.7170179999999999 4.3

Bond Coeffs

1 1.4937875 3.5
2 8.962725 3.2
3 5.97515 4.0
4 5.97515 3.3000000000000003
5 5.97515 2.8000000000000003
6 8.962725 3.1
7 8.962725 3.0
8 5.97515 3.2
9 8.962725 3.3000000000000003
10 5.97515 3.4000000000000004
11 5.97515 3.0
12 2.987575 4.0
13 11.9503 3.3000000000000003
14 11.9503 3.1
15 11.9503 2.6500000000000004
16 11.9503 2.7
17 11.9503 2.6

Angle Coeffs

1 2.39006 127
2 83.6521 96
3 2.39006 100
4 2.39006 130
5 11.9503 98
6 2.987575 100
7 2.987575 180
8 5.97515 150
9 5.97515 210
10 5.97515 90

Dihedral Coeffs

1 95.6024 1 -120 0

Improper Coeffs

1 5.97515 0
2 23.9006 0

Atoms

1 1 1 1.0000 1.2549999 -0.027 -48.818
2 1 2 0.0000 0.0514502 0.303809 -51.2491
3 1 3 -1.0000 -1.0735 -1.23672 -53.3425
4 1 4 0.0000 1.67451 2.18436 -54.379402
5 1 5 0.0000 3.26259 0.37252003 -55.7316
6 1 4 0.0000 1.5110301 5.21534 -54.666702
7 1 3 -1.0000 -1.90779 6.02186 -55.8836
8 1 4 0.0000 4.36543 5.92698 -56.0867
9 1 6 0.0000 6.85153 3.9511 -55.0013
10 1 1 1.0000 7.98495 1.7651799 -56.521
11 1 4 0.0000 4.06131 4.70638 -59.0831
12 1 7 0.0000 1.5911 6.78899 -60.082596
13 1 6 0.0000 -1.16704 7.12698 -60.9564
14 1 1 1.0000 -4.21099 5.81785 -60.1054
15 1 7 0.0000 3.57164 9.71014 -59.369003
16 1 6 0.0000 2.23632 11.217001 -57.1839
17 1 1 1.0000 -0.17805901 10.4133 -55.900604
18 1 7 0.0000 6.0608797 9.25084 -61.382698
19 1 8 0.0000 8.041531 7.1851597 -59.9354
20 1 9 0.0000 4.4996 9.67396 -64.1138
21 1 10 0.0000 4.84026 9.41525 -67.203995
22 1 10 0.0000 4.93824 9.30952 -70.0214
23 1 10 0.0000 6.6915503 8.86167 -69.098404
24 1 9 0.0000 3.64419 12.6507 -63.870502
25 1 5 0.0000 1.6103 14.5929 -63.649002
26 1 9 0.0000 6.46195 13.9702 -63.2824
27 1 11 0.0000 4.87102 17.2924 -65.0534
28 1 9 0.0000 7.97068 13.0966 -65.7364
29 1 6 0.0000 9.65671 10.5383005 -65.1759
30 1 1 1.0000 11.4821005 8.70774 -64.6136
31 1 12 0.0000 7.3643203 13.828899 -68.9642
32 1 13 0.0000 8.73819 13.895599 -71.2444
33 1 7 0.0000 3.87099 14.6986 -68.8377
34 1 12 0.0000 1.4950099 12.7905 -68.4059
35 1 11 0.0000 -1.5673199 16.1891 -68.194496
36 1 12 0.0000 0.253156 12.6119 -71.7006
37 1 13 0.0000 -0.197972 15.8831005 -71.3697
38 1 2 0.0000 -0.209473 9.25212 -71.2716
39 1 14 0.0000 2.01721 7.47392 -72.320496
40 1 15 0.0000 3.3806 5.25401 -72.2609
41 1 15 0.0000 3.90977 7.20821 -74.1994
42 1 2 0.0000 -3.48738 8.01651 -71.4538
43 1 16 0.0000 -4.49998 8.54409 -73.6418
44 1 2 0.0000 -4.58832 6.9271803 -68.2577
45 1 5 0.0000 -3.19347 4.73069 -67.3478
46 1 2 0.0000 -6.98549 6.7823305 -65.2419
47 1 3 -1.0000 -5.52456 9.79811 -62.666897
48 1 12 0.0000 -10.2609005 4.1634197 -64.5879
49 1 6 0.0000 -11.406799 2.83073 -61.730198
50 1 1 1.0000 -11.5169 1.55396 -59.0461
51 1 12 0.0000 -12.3211 5.84908 -66.587204
52 1 2 0.0000 -9.7226 8.276051 -67.1633
53 1 2 0.0000 -9.81584 11.1174 -65.811
54 1 6 0.0000 -10.6970005 9.227839 -62.9903
55 1 1 1.0000 -9.340819 8.0161495 -60.929497
56 1 2 0.0000 -9.45668 13.2355 -70.2179
57 1 14 0.0000 -10.148 10.6557 -72.0513
58 1 15 0.0000 -8.98116 8.20673 -72.272804
59 1 15 0.0000 -11.637699 8.2637205 -72.0682
60 1 2 0.0000 -4.73681 13.049099 -71.4814
61 1 6 0.0000 -4.55582 11.7968 -68.5497
62 1 1 1.0000 -3.1925101 11.3861 -66.2167
63 1 2 0.0000 -3.44316 12.8695 -75.243904
64 1 16 0.0000 -3.8609002 14.8647995 -77.003296
65 1 2 0.0000 -1.08848 9.706181 -76.769
66 1 11 0.0000 -0.22319701 6.72941 -77.0175
67 1 6 0.0000 1.44997 5.90337 -79.2554
68 1 2 0.0000 -1.3482399 4.47 -75.037094
69 1 2 0.0000 -4.72046 4.24012 -76.4485
70 1 2 0.0000 -2.4734101 2.60211 -72.0887
71 1 8 0.0000 0.0994021 2.47685 -70.4893
72 1 12 0.0000 -5.5962 2.69717 -73.7296
73 1 14 0.0000 -7.1701803 3.06812 -71.202896
74 1 15 0.0000 -9.31037 4.29769 -70.3242
75 1 15 0.0000 -7.65279 2.9811702 -68.5914
76 1 12 0.0000 -7.3632298 -1.26158 -73.3403
77 1 2 0.0000 -5.04403 -1.6972699 -71.276306
78 1 8 0.0000 -4.38281 -0.388616 -68.5533
79 1 12 0.0000 -5.9713297 -5.21802 -70.367096
80 1 10 0.0000 -4.8302402 -6.33638 -67.803
81 1 10 0.0000 -3.93213 -5.6079698 -65.3415
82 1 10 0.0000 -6.13436 -6.9776797 -65.637
83 1 12 0.0000 -5.1876903 -7.72731 -72.8022
84 1 2 0.0000 -5.31075 -6.80083 -76.230995
85 1 7 0.0000 -3.98479 -4.09418 -75.8698
86 1 1 1.0000 -2.7349 -0.785332 -75.708
87 1 2 0.0000 -3.1584702 -8.00729 -79.1355
88 1 6 0.0000 -0.553133 -9.22814 -80.2556
89 1 1 1.0000 0.773341 -11.433901 -80.8681
90 1 12 0.0000 -2.13206 -4.0586 -80.330894
91 1 16 0.0000 0.0406019 -4.11432 -78.571304
92 1 12 0.0000 -5.3152103 -3.3722 -81.197205
93 1 2 0.0000 -6.65477 -0.66528606 -78.8702
94 1 11 0.0000 -8.9664 -3.38517 -77.407394
95 1 11 0.0000 -8.50658 1.8506999 -78.1287
96 1 7 0.0000 -10.057401 4.99325 -75.5532
97 1 6 0.0000 -12.1730995 3.06512 -74.8863
98 1 12 0.0000 -8.59702 6.7068 -77.0255
99 1 2 0.0000 -8.054379 5.54978 -80.7773
100 1 10 0.0000 -7.5651197 7.7661996 -82.8762
101 1 10 0.0000 -5.7689 7.68808 -84.809906
102 1 10 0.0000 -7.19339 9.9786005 -84.0585
103 1 2 0.0000 -4.8930902 3.30277 -82.1172
104 1 16 0.0000 -5.6423197 1.59163 -83.8356
105 1 2 0.0000 -2.09703 5.4023304 -82.6891
106 1 14 0.0000 -2.99859 7.99305 -81.048004
107 1 14 0.0000 -4.71862 9.26639 -79.6482
108 1 15 0.0000 -3.02554 10.5927 -81.352905
109 1 2 0.0000 -0.886521 4.60913 -85.7679
110 1 16 0.0000 -2.1783 5.4994497 -87.6637
111 1 4 0.0000 2.05894 3.2829201 -85.5569
112 1 3 -1.0000 2.2216198 1.32348 -88.00569
113 1 7 0.0000 2.7074199 2.04295 -82.6445
114 1 12 0.0000 0.0639097 0.782786 -81.863205
115 1 2 0.0000 -0.42562997 0.845097 -79.2949
116 1 12 0.0000 -0.171865 -1.16236 -84.2839
117 1 6 0.0000 -2.24562 -0.9759 -86.642105
118 1 1 1.0000 -2.11371 0.574932 -88.6783
119 1 9 0.0000 2.4149399 -3.10261 -83.9637
120 1 2 0.0000 4.06634 -3.02185 -86.4277
121 1 2 0.0000 4.0157 -5.1228704 -81.648705
122 1 6 0.0000 7.5417604 -4.85634 -81.39169
123 1 1 1.0000 9.85075 -5.2213197 -79.3153
124 1 2 0.0000 3.8379698 -7.5613303 -79.714
125 1 2 0.0000 2.55847 -8.062 -76.7836
126 1 8 0.0000 2.63966 -11.1088 -76.550896
127 1 2 0.0000 0.112896 -8.09852 -74.2861
128 1 16 0.0000 -1.14605 -10.1688 -74.7221
129 1 2 0.0000 -0.601684 -8.245319 -69.9823
130 1 14 0.0000 -0.71262205 -5.13556 -70.428
131 1 17 0.0000 -0.0065755304 -2.8126903 -71.854904
132 1 10 0.0000 -0.0351836 -5.05717 -73.3471
133 1 10 0.0000 0.918647 -2.98455 -74.075
134 1 2 0.0000 0.12625399 -8.57236 -67.286804
135 1 6 0.0000 2.92693 -10.799399 -67.102196
136 1 1 1.0000 4.56158 -11.8046 -64.9231
137 1 4 0.0000 2.61626 -6.46421 -66.0792
138 1 3 -1.0000 5.09112 -7.97495 -62.476303
139 1 4 0.0000 5.29048 -7.60425 -67.4523
140 1 3 -1.0000 6.47058 -7.98182 -63.671196
141 1 4 0.0000 4.6272798 -6.4493 -70.5895
142 1 16 0.0000 4.89958 -8.5872 -72.434204
143 1 12 0.0000 4.7543902 -3.6005101 -69.6573
144 1 8 0.0000 3.97071 -0.738775 -70.106705
145 1 9 0.0000 8.04066 -3.61271 -69.060104
146 1 13 0.0000 10.1798 -6.08639 -66.525604
147 1 9 0.0000 8.939449 -3.39145 -71.981
148 1 3 -1.0000 11.4609 -4.20619 -74.9994
149 1 9 0.0000 7.7196903 -0.268478 -72.8929
150 1 14 0.0000 5.2452097 0.870656 -74.6576
151 1 14 0.0000 4.30997 2.9956298 -76.1687
152 1 15 0.0000 2.9071 1.0308499 -75.173996
153 1 12 0.0000 9.44489 1.7463399 -71.1723
154 1 8 0.0000 7.12795 3.6867402 -70.0945
155 1 12 0.0000 12.582399 0.742796 -72.3668
156 1 3 -1.0000 16.289001 0.320381 -71.469795
157 1 2 0.0000 13.1175 3.96875 -74.184296
158 1 2 0.0000 16.0509 4.14414 -74.3874
159 1 7 0.0000 10.0933 3.5623899 -75.4949
160 1 6 0.0000 8.51952 5.5663004 -74.1695
161 1 12 0.0000 10.874701 3.47427 -78.502594
162 1 6 0.0000 12.6537 6.26935 -79.6127
163 1 1 1.0000 11.3942 8.56624 -81.0504
164 1 12 0.0000 11.364599 0.207958 -78.576004
165 1 6 0.0000 13.904099 0.32246798 -76.8417
166 1 1 1.0000 15.4397 -1.82479 -75.7729
167 1 12 0.0000 8.47443 -0.557104 -77.9806
168 1 14 0.0000 6.72503 -2.81989 -76.525406
169 1 14 0.0000 4.74961 -3.99895 -75.0438
170 1 15 0.0000 6.45084 -5.13908 -76.041595
171 1 2 0.0000 6.2347403 0.46228403 -79.9335
172 1 8 0.0000 4.1886196 -1.2755101 -79.0616
173 1 7 0.0000 6.9583797 -0.128966 -83.0738
174 1 6 0.0000 9.1724 -1.0013599 -84.9163
175 1 12 0.0000 8.88524 3.46545 -82.8667
176 1 2 0.0000 6.56049 4.71329 -80.8642
177 1 16 0.0000 6.89714 6.43203 -78.9445
178 1 2 0.0000 4.85922 6.54643 -83.294
179 1 6 0.0000 6.9157305 5.07757 -85.7872
180 1 1 1.0000 6.34315 2.87243 -87.7993
181 1 2 0.0000 2.21994 9.03117 -83.201996
182 1 13 0.0000 1.19399 8.54619 -87.2184
183 1 2 0.0000 1.8904 11.427401 -80.3345
184 1 8 0.0000 0.65617 14.1932 -80.5282
185 1 2 0.0000 3.83867 10.9883995 -78.074196
186 1 10 0.0000 3.12786 13.4827 -75.8304
187 1 10 0.0000 3.6564002 15.8969 -74.825806
188 1 10 0.0000 1.09417 15.237101 -75.701096
189 1 11 0.0000 7.1837196 10.8429 -77.0904
190 1 2 0.0000 8.24692 10.1626005 -73.8276
191 1 2 0.0000 11.184 7.49512 -70.5924
192 1 8 0.0000 12.501201 10.2417 -69.4331
193 1 2 0.0000 12.259001 4.9886103 -68.7649
194 1 6 0.0000 14.995299 4.8162203 -69.754196
195 1 1 1.0000 17.4448 4.2563 -68.775
196 1 2 0.0000 15.432 1.42838 -66.3471
197 1 6 0.0000 17.4692 2.40742 -63.4878
198 1 1 1.0000 16.7564 3.26992 -61.0448
199 1 4 0.0000 14.0027 -0.97668403 -63.996002
200 1 6 0.0000 11.760599 -3.76891 -62.5309
201 1 1 1.0000 9.072531 -4.6553903 -61.747498
202 1 4 0.0000 12.771799 0.721873 -61.8494
203 1 16 0.0000 12.2736 0.49290898 -59.5763
204 1 4 0.0000 11.8863 3.2087498 -63.891
205 1 3 -1.0000 15.2124 6.0017004 -64.7648
206 1 4 0.0000 10.310801 1.3011401 -65.9698
207 1 7 0.0000 11.858799 -1.25314 -68.070305
208 1 1 1.0000 13.2738 -3.3649 -70.0793
209 1 7 0.0000 8.796391 -0.0751257 -63.669098
210 1 3 -1.0000 6.6933203 -1.2775899 -59.6884
211 1 7 0.0000 7.04726 2.52879 -62.3521
212 1 3 -1.0000 6.2968597 -0.311414 -60.1041
213 1 7 0.0000 5.41116 3.19113 -65.2651
214 1 8 0.0000 7.0195503 5.71914 -65.6568
215 1 7 0.0000 3.96001 0.252688 -65.3628
216 1 8 0.0000 5.3080997 -2.54423 -65.107796
217 1 13 0.0000 2.4890199 0.843115 -62.508003
218 1 7 0.0000 0.91432804 3.20218 -63.9381
219 1 14 0.0000 1.1356701 5.58847 -65.440506
220 1 14 0.0000 2.32446 6.18017 -67.7217
221 1 15 0.0000 0.338369 7.58619 -66.438995
222 1 7 0.0000 -0.44526 0.946067 -65.9695
223 1 8 0.0000 0.24295099 -1.8245301 -67.1064
224 1 7 0.0000 -1.70188 -0.900423 -63.262
225 1 6 0.0000 0.75066996 -3.41934 -62.0475
226 1 1 1.0000 3.3354602 -3.9776 -61.2298
227 1 9 0.0000 -3.46834 1.3297 -61.9709
228 1 6 0.0000 -2.69786 1.4947499 -58.525
229 1 1 1.0000 -4.20411 1.8747699 -55.7935
230 1 7 0.0000 -5.56809 2.11043 -64.158905
231 1 9 0.0000 -7.0620604 -0.77406895 -64.2401
232 1 16 0.0000 -8.36562 -1.51636 -66.488
233 1 9 0.0000 -7.64895 -0.891227 -61.079704
234 1 2 0.0000 -6.15058 -2.5907001 -58.907898
235 1 3 -1.0000 -7.33952 2.4965 -60.2729
236 1 3 -1.0000 -8.45212 4.6104603 -57.7558

Bonds

1 1 1 2
2 1 31 33
3 1 33 34
4 1 34 36
5 1 36 38
6 1 38 42
7 1 42 44
8 1 44 46
9 1 46 48
10 1 48 51
11 1 51 52
12 1 52 53
13 1 53 56
14 1 56 60
15 1 60 63
16 1 63 65
17 1 65 66
18 1 66 68
19 1 68 70
20 1 70 72
21 1 72 76
22 1 76 77
23 1 77 79
24 1 79 83
25 1 83 84
26 1 84 87
27 1 87 90
28 1 90 92
29 1 92 93
30 1 93 95
31 1 95 96
32 1 96 98
33 1 98 99
34 1 99 103
35 1 103 105
36 1 105 109
37 1 121 124
38 1 124 125
39 1 125 127
40 1 127 129
41 1 129 134
42 1 153 155
43 1 155 157
44 1 171 173
45 1 173 175
46 1 175 176
47 1 176 178
48 1 178 181
49 1 181 183
50 1 183 185
51 1 185 189
52 1 189 190
53 1 190 191
54 1 191 193
55 1 193 196
56 2 2 3
57 3 6 7
58 4 8 9
59 5 9 10
60 4 12 13
61 5 13 14
62 4 15 16
63 5 16 17
64 6 20 21
65 3 26 27
66 4 28 29
67 5 29 30
68 6 31 32
69 3 34 35
70 6 36 37
71 2 38 39
72 3 46 47
73 4 48 49
74 5 49 50
75 4 53 54
76 5 54 55
77 2 56 57
78 4 60 61
79 5 61 62
80 7 66 67
81 8 68 69
82 9 70 71
83 2 72 73
84 9 77 78
85 6 79 80
86 4 84 85
87 10 85 86
88 4 87 88
89 5 88 89
90 3 93 94
91 7 96 97
92 6 99 100
93 8 105 106
94 2 111 112
95 8 114 115
96 4 116 117
97 5 117 118
98 8 119 120
99 4 121 122
100 5 122 123
101 11 129 130
102 4 134 135
103 5 135 136
104 3 137 138
105 3 139 140
106 9 143 144
107 12 145 146
108 3 147 148
109 8 149 150
110 9 153 154
111 3 155 156
112 8 157 158
113 7 159 160
114 4 161 162
115 5 162 163
116 4 164 165
117 5 165 166
118 8 167 168
119 7 173 174
120 4 178 179
121 5 179 180
122 12 181 182
123 6 185 186
124 4 193 194
125 5 194 195
126 4 196 197
127 5 197 198
128 4 199 200
129 5 200 201
130 3 204 205
131 4 206 207
132 10 207 208
133 3 209 210
134 2 211 212
135 9 213 214
136 8 218 219
137 9 222 223
138 4 224 225
139 5 225 226
140 4 227 228
141 5 228 229
142 8 233 234
143 3 235 236
144 13 2 4
145 14 4 6
146 14 6 8
147 14 8 11
148 14 11 12
149 14 12 15
150 14 15 18
151 14 18 20
152 14 20 24
153 14 24 26
154 14 26 28
155 13 28 31
156 13 109 111
157 14 111 113
158 14 113 114
159 14 114 116
160 14 116 119
161 13 119 121
162 13 134 137
163 14 137 139
164 14 139 141
165 14 141 143
166 14 143 145
167 14 145 147
168 14 147 149
169 13 149 153
170 13 157 159
171 14 159 161
172 14 161 164
173 14 164 167
174 13 167 171
175 13 196 199
176 14 199 202
177 14 202 204
178 14 204 206
179 14 206 209
180 14 209 211
181 14 211 213
182 14 213 215
183 14 215 217
184 14 217 218
185 14 218 222
186 14 222 224
187 14 224 227
188 14 227 230
189 14 230 231
190 14 231 233
191 13 233 235
192 15 4 5
193 14 18 19
194 16 21 22
195 16 21 23
196 16 22 23
197 15 24 25
198 16 39 40
199 16 39 41
200 16 40 41
201 17 42 43
202 15 44 45
203 16 57 58
204 16 57 59
205 16 58 59
206 17 63 64
207 16 73 74
208 16 73 75
209 16 74 75
210 16 80 81
211 16 80 82
212 16 81 82
213 17 90 91
214 16 100 101
215 16 100 102
216 16 101 102
217 17 103 104
218 16 106 107
219 16 106 108
220 16 107 108
221 17 109 110
222 14 125 126
223 17 127 128
224 16 130 131
225 16 130 132
226 16 131 132
227 16 131 133
228 16 132 133
229 17 141 142
230 16 150 151
231 16 150 152
232 16 151 152
233 16 168 169
234 16 168 170
235 16 169 170
236 14 171 172
237 17 176 177
238 14 183 184
239 16 186 187
240 16 186 188
241 16 187 188
242 14 191 192
243 17 202 203
244 14 215 216
245 16 219 220
246 16 219 221
247 16 220 221
248 17 231 232

Angles

1 1 1 2 4
2 1 2 4 6
3 2 4 6 8
4 2 6 8 11
5 2 8 11 12
6 2 11 12 15
7 2 12 15 18
8 2 15 18 20
9 2 18 20 24
10 2 20 24 26
11 2 24 26 28
12 3 26 28 31
13 3 28 31 33
14 3 31 33 34
15 3 33 34 36
16 3 34 36 38
17 3 36 38 42
18 1 38 42 44
19 1 42 44 46
20 3 44 46 48
21 3 46 48 51
22 3 48 51 52
23 3 51 52 53
24 1 52 53 56
25 1 53 56 60
26 1 56 60 63
27 1 60 63 65
28 4 63 65 66
29 1 65 66 68
30 1 66 68 70
31 3 68 70 72
32 3 70 72 76
33 3 72 76 77
34 3 76 77 79
35 3 77 79 83
36 3 79 83 84
37 3 83 84 87
38 3 84 87 90
39 3 87 90 92
40 3 90 92 93
41 3 92 93 95
42 1 93 95 96
43 3 95 96 98
44 3 96 98 99
45 3 98 99 103
46 1 99 103 105
47 1 103 105 109
48 1 105 109 111
49 1 109 111 113
50 2 111 113 114
51 2 113 114 116
52 2 114 116 119
53 1 116 119 121
54 1 119 121 124
55 1 121 124 125
56 1 124 125 127
57 1 125 127 129
58 1 127 129 134
59 1 129 134 137
60 4 134 137 139
61 2 137 139 141
62 2 139 141 143
63 2 141 143 145
64 2 143 145 147
65 2 145 147 149
66 3 147 149 153
67 3 149 153 155
68 3 153 155 157
69 3 155 157 159
70 5 157 159 161
71 5 159 161 164
72 2 161 164 167
73 4 164 167 171
74 4 167 171 173
75 3 171 173 175
76 3 173 175 176
77 3 175 176 178
78 1 176 178 181
79 1 178 181 183
80 1 181 183 185
81 1 183 185 189
82 1 185 189 190
83 1 189 190 191
84 1 190 191 193
85 1 191 193 196
86 1 193 196 199
87 4 196 199 202
88 2 199 202 204
89 2 202 204 206
90 2 204 206 209
91 2 206 209 211
92 2 209 211 213
93 2 211 213 215
94 2 213 215 217
95 2 215 217 218
96 2 217 218 222
97 2 218 222 224
98 2 222 224 227
99 2 224 227 230
100 2 227 230 231
101 2 230 231 233
102 1 231 233 235
103 6 1 2 3
104 6 2 4 5
105 6 4 6 7
106 6 6 8 9
107 6 11 12 13
108 6 12 15 16
109 6 15 18 19
110 6 18 20 21
111 6 20 24 25
112 6 24 26 27
113 6 26 28 29
114 6 28 31 32
115 6 33 34 35
116 6 34 36 37
117 6 36 38 39
118 6 38 42 43
119 6 42 44 45
120 6 44 46 47
121 6 46 48 49
122 6 52 53 54
123 6 53 56 57
124 6 56 60 61
125 6 60 63 64
126 6 65 66 67
127 6 66 68 69
128 6 68 70 71
129 6 70 72 73
130 6 76 77 78
131 6 77 79 80
132 6 83 84 85
133 6 84 87 88
134 6 87 90 91
135 6 92 93 94
136 6 95 96 97
137 6 98 99 100
138 6 99 103 104
139 6 103 105 106
140 6 105 109 110
141 6 109 111 112
142 6 113 114 115
143 6 114 116 117
144 6 116 119 120
145 6 119 121 122
146 6 124 125 126
147 6 125 127 128
148 6 127 129 130
149 6 129 134 135
150 6 134 137 138
151 6 137 139 140
152 6 139 141 142
153 6 141 143 144
154 6 143 145 146
155 6 145 147 148
156 6 147 149 150
157 6 149 153 154
158 6 153 155 156
159 6 155 157 158
160 6 157 159 160
161 6 159 161 162
162 6 161 164 165
163 6 164 167 168
164 6 167 171 172
165 6 171 173 174
166 6 175 176 177
167 6 176 178 179
168 6 178 181 182
169 6 181 183 184
170 6 183 185 186
171 6 190 191 192
172 6 191 193 194
173 6 193 196 197
174 6 196 199 200
175 6 199 202 203
176 6 202 204 205
177 6 204 206 207
178 6 206 209 210
179 6 209 211 212
180 6 211 213 214
181 6 213 215 216
182 6 217 218 219
183 6 218 222 223
184 6 222 224 225
185 6 224 227 228
186 6 230 231 232
187 6 231 233 234
188 6 233 235 236
189 7 8 9 10
190 7 12 13 14
191 7 15 16 17
192 8 20 21 22
193 8 20 21 23
194 7 28 29 30
195 8 38 39 40
196 8 38 39 41
197 7 48 49 50
198 7 53 54 55
199 8 56 57 58
200 8 56 57 59
201 7 60 61 62
202 8 72 73 74
203 8 72 73 75
204 8 79 80 81
205 8 79 80 82
206 7 84 85 86
207 7 87 88 89
208 8 99 100 101
209 8 99 100 102
210 8 105 106 107
211 8 105 106 108
212 7 116 117 118
213 7 121 122 123
214 9 129 130 131
215 10 129 130 132
216 7 134 135 136
217 8 149 150 151
218 8 149 150 152
219 7 161 162 163
220 7 164 165 166
221 8 167 168 169
222 8 167 168 170
223 7 178 179 180
224 8 185 186 187
225 8 185 186 188
226 7 193 194 195
227 7 196 197 198
228 7 199 200 201
229 7 206 207 208
230 8 218 219 220
231 8 218 219 221
232 7 224 225 226
233 7 227 228 229

Dihedrals

1 1 4 6 8 11
2 1 6 8 11 12
3 1 8 11 12 15
4 1 11 12 15 18
5 1 12 15 18 20
6 1 15 18 20 24
7 1 18 20 24 26
8 1 20 24 26 28
9 1 111 113 114 116
10 1 113 114 116 119
11 1 137 139 141 143
12 1 139 141 143 145
13 1 141 143 145 147
14 1 143 145 147 149
15 1 159 161 164 167
16 1 199 202 204 206
17 1 202 204 206 209
18 1 204 206 209 211
19 1 206 209 211 213
20 1 209 211 213 215
21 1 211 213 215 217
22 1 213 215 217 218
23 1 215 217 218 222
24 1 217 218 222 224
25 1 218 222 224 227
26 1 222 224 227 230
27 1 224 227 230 231
28 1 227 230 231 233

Impropers

1 1 20 22 23 21
2 1 38 40 41 39
3 1 56 58 59 57
4 1 72 74 75 73
5 1 79 81 82 80
6 1 99 101 102 100
7 1 105 107 108 106
8 1 129 131 132 130
9 2 130 131 133 132
10 1 149 151 152 150
11 1 167 169 170 168
12 1 185 187 188 186
13 1 218 220 221 219

