comment

236 atoms
248 bonds
233 angles
28 dihedrals
13 impropers

17 atom types
17 bond types
10 angle types
1 dihedral types
2 improper types

-40.5 40.5 xlo xhi
-40.5 40.5 ylo yhi
-190.0 190.0 zlo zhi

Masses

1 72.0
2 72.0
3 72.0
4 72.0
5 72.0
6 72.0
7 72.0
8 72.0
9 72.0
10 45.0
11 72.0
12 72.0
13 72.0
14 45.0
15 45.0
16 72.0
17 45.0

PairIJ Coeffs

1 1 1.19503 4.699999999999999
1 2 1.3384336 4.699999999999999
1 3 1.3384336 4.699999999999999
1 4 0.956024 4.699999999999999
1 5 0.478012 4.699999999999999
1 6 0.5497137999999999 4.699999999999999
1 7 0.836521 4.699999999999999
1 8 0.478012 4.699999999999999
1 9 1.19503 4.699999999999999
1 10 0.7409186 4.699999999999999
1 11 1.3384336 4.699999999999999
1 12 1.19503 4.699999999999999
1 13 0.7409186 4.699999999999999
1 14 0.6453162 4.699999999999999
1 15 1.19503 4.699999999999999
1 16 1.19503 4.699999999999999
1 17 0.956024 4.699999999999999
2 2 1.3384336 4.699999999999999
2 3 1.3384336 4.699999999999999
2 4 1.19503 4.699999999999999
2 5 0.5497137999999999 4.699999999999999
2 6 0.6453162 4.699999999999999
2 7 0.836521 4.699999999999999
2 8 0.478012 4.699999999999999
2 9 1.19503 4.699999999999999
2 10 0.7409186 4.699999999999999
2 11 1.3384336 4.699999999999999
2 12 1.19503 4.699999999999999
2 13 0.7409186 4.699999999999999
2 14 0.6453162 4.699999999999999
2 15 1.3384336 4.699999999999999
2 16 1.3384336 4.699999999999999
2 17 1.19503 4.699999999999999
3 3 1.19503 4.699999999999999
3 4 1.19503 4.699999999999999
3 5 0.478012 4.699999999999999
3 6 0.5497137999999999 4.699999999999999
3 7 0.836521 4.699999999999999
3 8 0.478012 4.699999999999999
3 9 0.956024 4.699999999999999
3 10 0.7409186 4.699999999999999
3 11 1.3384336 4.699999999999999
3 12 1.19503 4.699999999999999
3 13 0.7409186 4.699999999999999
3 14 0.6453162 4.699999999999999
3 15 1.19503 4.699999999999999
3 16 1.19503 4.699999999999999
3 17 1.19503 4.699999999999999
4 4 0.956024 4.699999999999999
4 5 0.6453162 4.699999999999999
4 6 0.6453162 4.699999999999999
4 7 0.836521 4.699999999999999
4 8 0.6453162 4.699999999999999
4 9 1.075527 4.699999999999999
4 10 0.836521 4.699999999999999
4 11 0.956024 4.699999999999999
4 12 1.075527 4.699999999999999
4 13 0.836521 4.699999999999999
4 14 0.7409186 4.699999999999999
4 15 1.075527 4.699999999999999
4 16 1.075527 4.699999999999999
4 17 0.956024 4.699999999999999
5 5 0.836521 4.699999999999999
5 6 0.836521 4.699999999999999
5 7 0.7409186 4.699999999999999
5 8 0.836521 4.699999999999999
5 9 0.6453162 4.699999999999999
5 10 0.7409186 4.699999999999999
5 11 0.5497137999999999 4.699999999999999
5 12 0.6453162 4.699999999999999
5 13 0.7409186 4.699999999999999
5 14 0.7409186 4.699999999999999
5 15 0.7409186 4.699999999999999
5 16 0.7409186 4.699999999999999
5 17 0.6453162 4.699999999999999
6 6 0.836521 4.699999999999999
6 7 0.836521 4.699999999999999
6 8 0.836521 4.699999999999999
6 9 0.6453162 4.699999999999999
6 10 0.836521 4.699999999999999
6 11 0.6453162 4.699999999999999
6 12 0.6453162 4.699999999999999
6 13 0.836521 4.699999999999999
6 14 0.836521 4.699999999999999
6 15 0.836521 4.699999999999999
6 16 0.836521 4.699999999999999
6 17 0.6453162 4.699999999999999
7 7 0.836521 4.699999999999999
7 8 0.6453162 4.699999999999999
7 9 0.836521 4.699999999999999
7 10 0.836521 4.699999999999999
7 11 0.836521 4.699999999999999
7 12 0.836521 4.699999999999999
7 13 0.836521 4.699999999999999
7 14 0.836521 4.699999999999999
7 15 0.956024 4.699999999999999
7 16 0.956024 4.699999999999999
7 17 0.836521 4.699999999999999
8 8 0.836521 4.699999999999999
8 9 0.6453162 4.699999999999999
8 10 0.7409186 4.699999999999999
8 11 0.478012 4.699999999999999
8 12 0.6453162 4.699999999999999
8 13 0.7409186 4.699999999999999
8 14 0.7409186 4.699999999999999
8 15 0.6453162 4.699999999999999
8 16 0.6453162 4.699999999999999
8 17 0.6453162 4.699999999999999
9 9 0.956024 4.699999999999999
9 10 0.836521 4.699999999999999
9 11 0.956024 4.699999999999999
9 12 1.075527 4.699999999999999
9 13 0.836521 4.699999999999999
9 14 0.7409186 4.699999999999999
9 15 1.075527 4.699999999999999
9 16 1.075527 4.699999999999999
9 17 1.075527 4.699999999999999
10 10 0.62739075 4.3
10 11 0.7409186 4.699999999999999
10 12 0.836521 4.699999999999999
10 13 0.836521 4.699999999999999
10 14 0.62739075 4.3
10 15 0.62739075 4.3
10 16 0.836521 4.699999999999999
10 17 0.62739075 4.3
11 11 1.19503 4.699999999999999
11 12 0.956024 4.699999999999999
11 13 0.7409186 4.699999999999999
11 14 0.6453162 4.699999999999999
11 15 1.075527 4.699999999999999
11 16 1.075527 4.699999999999999
11 17 0.956024 4.699999999999999
12 12 1.075527 4.699999999999999
12 13 0.836521 4.699999999999999
12 14 0.7409186 4.699999999999999
12 15 1.075527 4.699999999999999
12 16 1.075527 4.699999999999999
12 17 1.075527 4.699999999999999
13 13 0.836521 4.699999999999999
13 14 0.836521 4.699999999999999
13 15 0.836521 4.699999999999999
13 16 0.836521 4.699999999999999
13 17 0.836521 4.699999999999999
14 14 0.62739075 4.3
14 15 0.62739075 4.3
14 16 0.836521 4.699999999999999
14 17 0.5556889500000001 4.3
15 15 0.80664525 4.3
15 16 1.075527 4.699999999999999
15 17 0.80664525 4.3
16 16 1.075527 4.699999999999999
16 17 1.075527 4.699999999999999
17 17 0.7170179999999999 4.3

Bond Coeffs

1 1.4937875 3.5
2 8.962725 3.2
3 5.97515 4.0
4 5.97515 3.3000000000000003
5 5.97515 2.8000000000000003
6 8.962725 3.1
7 8.962725 3.0
8 5.97515 3.2
9 8.962725 3.3000000000000003
10 5.97515 3.4000000000000004
11 5.97515 3.0
12 2.987575 4.0
13 11.9503 3.3000000000000003
14 11.9503 3.1
15 11.9503 2.6500000000000004
16 11.9503 2.7
17 11.9503 2.6

Angle Coeffs

1 2.39006 127
2 83.6521 96
3 2.39006 100
4 2.39006 130
5 11.9503 98
6 2.987575 100
7 2.987575 180
8 5.97515 150
9 5.97515 210
10 5.97515 90

Dihedral Coeffs

1 95.6024 1 -120 0

Improper Coeffs

1 5.97515 0
2 23.9006 0

Atoms

1 1 1 1.0000 1.2549999 -0.027 -48.818
2 1 2 0.0000 0.096756205 0.0974369 -51.0786
3 1 3 -1.0000 -1.2921201 -1.01986 -53.3722
4 1 4 0.0000 1.6970401 2.11557 -54.200703
5 1 5 0.0000 3.2067702 0.513604 -55.430798
6 1 4 0.0000 1.7327 5.3923397 -54.6995
7 1 3 -1.0000 -1.78266 5.92614 -55.8803
8 1 4 0.0000 4.46918 5.8291 -56.2677
9 1 6 0.0000 6.82742 3.5728402 -55.1553
10 1 1 1.0000 8.05286 1.72143 -56.2598
11 1 4 0.0000 3.829 4.6593003 -59.178802
12 1 7 0.0000 1.4916501 6.79568 -60.123802
13 1 6 0.0000 -1.3666999 7.02527 -60.6768
14 1 1 1.0000 -4.1026397 5.84312 -59.9412
15 1 7 0.0000 3.3211699 9.62292 -59.4871
16 1 6 0.0000 1.89847 11.086 -56.883602
17 1 1 1.0000 -0.0396473 10.034699 -55.205498
18 1 7 0.0000 5.86719 9.13815 -61.507
19 1 8 0.0000 8.04239 7.12506 -60.1276
20 1 9 0.0000 4.67828 9.601561 -64.298004
21 1 10 0.0000 4.79499 9.57225 -67.2155
22 1 10 0.0000 4.4457297 9.3423 -69.8943
23 1 10 0.0000 7.01293 8.88168 -69.3643
24 1 9 0.0000 3.6213698 12.8159 -63.9692
25 1 5 0.0000 1.22164 14.233399 -63.4329
26 1 9 0.0000 6.46882 14.204901 -63.232998
27 1 11 0.0000 5.2122803 17.2127 -65.3827
28 1 9 0.0000 7.8501396 13.0725 -65.664505
29 1 6 0.0000 9.49278 10.6135 -65.5196
30 1 1 1.0000 10.9182 8.5361595 -65.068405
31 1 12 0.0000 7.3799095 13.775801 -68.8803
32 1 13 0.0000 8.43497 13.881201 -71.5728
33 1 7 0.0000 3.63725 14.5674 -69.2212
34 1 12 0.0000 1.22799 12.6818 -68.3024
35 1 11 0.0000 -1.5948901 15.9759 -68.0052
36 1 12 0.0000 -0.0990396 12.4151 -71.7076
37 1 13 0.0000 -0.36492002 15.5617 -71.4519
38 1 2 0.0000 -0.47784203 9.05047 -71.2987
39 1 14 0.0000 1.4635301 7.37616 -72.5904
40 1 15 0.0000 3.49505 5.50447 -72.2409
41 1 15 0.0000 3.57796 7.43289 -74.0355
42 1 2 0.0000 -3.9858499 7.76129 -71.1023
43 1 16 0.0000 -4.72906 8.16971 -73.5329
44 1 2 0.0000 -4.3579903 6.8838797 -67.4749
45 1 5 0.0000 -2.88633 4.6496 -67.5942
46 1 2 0.0000 -7.3772902 6.4860897 -65.2658
47 1 3 -1.0000 -5.59566 9.22869 -62.631203
48 1 12 0.0000 -10.7479 3.85766 -64.7927
49 1 6 0.0000 -12.035299 2.93815 -61.9272
50 1 1 1.0000 -11.805 1.6473999 -58.653
51 1 12 0.0000 -12.789299 6.02603 -66.695
52 1 2 0.0000 -9.74174 8.09392 -67.6444
53 1 2 0.0000 -10.0161 10.8267 -65.8756
54 1 6 0.0000 -10.325299 9.28961 -63.0265
55 1 1 1.0000 -9.277889 7.7618904 -60.607903
56 1 2 0.0000 -9.04243 12.7607 -70.019104
57 1 14 0.0000 -10.818 10.7014 -71.721405
58 1 15 0.0000 -9.368151 8.53952 -72.5288
59 1 15 0.0000 -11.617201 7.82196 -71.9565
60 1 2 0.0000 -5.35077 12.8618 -71.3051
61 1 6 0.0000 -4.7505302 12.1532 -68.1723
62 1 1 1.0000 -3.86091 11.3868 -66.2365
63 1 2 0.0000 -3.50132 12.761801 -75.5787
64 1 16 0.0000 -3.73788 14.778399 -77.079605
65 1 2 0.0000 -1.42958 10.2081 -76.4851
66 1 11 0.0000 -0.224123 6.20632 -76.9449
67 1 6 0.0000 1.58529 5.63025 -78.9644
68 1 2 0.0000 -1.6126 4.9113197 -75.1033
69 1 2 0.0000 -4.62634 3.8264701 -75.7899
70 1 2 0.0000 -2.53165 1.5002 -71.9391
71 1 8 0.0000 0.48525003 2.16193 -70.156494
72 1 12 0.0000 -5.96219 2.45808 -73.6363
73 1 14 0.0000 -7.28143 3.42713 -71.2046
74 1 15 0.0000 -9.356259 4.1224103 -70.4296
75 1 15 0.0000 -7.5341897 3.45229 -68.7325
76 1 12 0.0000 -7.31015 -1.0015501 -73.2788
77 1 2 0.0000 -5.2502103 -2.77744 -71.2497
78 1 8 0.0000 -4.2400103 -0.792059 -68.4768
79 1 12 0.0000 -5.7554 -5.60987 -70.2855
80 1 10 0.0000 -4.27367 -6.38129 -67.253
81 1 10 0.0000 -3.90017 -5.90854 -64.5495
82 1 10 0.0000 -6.1896 -6.7184105 -65.2061
83 1 12 0.0000 -5.10561 -8.13745 -72.5763
84 1 2 0.0000 -5.11508 -6.6328697 -75.2323
85 1 7 0.0000 -3.9148798 -4.01805 -75.7246
86 1 1 1.0000 -3.13602 -0.990796 -76.0977
87 1 2 0.0000 -3.62301 -7.77742 -79.3642
88 1 6 0.0000 -0.832808 -9.19439 -80.0107
89 1 1 1.0000 0.033692602 -11.540001 -81.133
90 1 12 0.0000 -2.39958 -4.23971 -79.9816
91 1 16 0.0000 -0.200774 -4.40141 -78.755005
92 1 12 0.0000 -5.1312 -3.0031202 -81.732704
93 1 2 0.0000 -6.64402 -0.760608 -79.7924
94 1 11 0.0000 -8.855289 -3.08277 -77.7619
95 1 11 0.0000 -8.66661 2.1589801 -77.9035
96 1 7 0.0000 -10.2837 4.13855 -75.8048
97 1 6 0.0000 -12.9672 3.01458 -75.4392
98 1 12 0.0000 -8.4691105 6.78206 -77.357
99 1 2 0.0000 -7.78369 5.5035105 -80.0972
100 1 10 0.0000 -7.48389 7.5951805 -82.575905
101 1 10 0.0000 -5.80523 7.47645 -84.8269
102 1 10 0.0000 -7.42281 9.71689 -84.2947
103 1 2 0.0000 -4.93801 3.4923801 -81.8567
104 1 16 0.0000 -5.67029 2.25022 -83.9514
105 1 2 0.0000 -2.11861 5.2462797 -82.35931
106 1 14 0.0000 -3.0313 7.87468 -81.058105
107 1 14 0.0000 -4.66677 9.22964 -80.0151
108 1 15 0.0000 -2.97927 10.3316 -81.4978
109 1 2 0.0000 -1.20403 4.7687 -85.6102
110 1 16 0.0000 -2.3178 5.8419 -87.6517
111 1 4 0.0000 1.58528 3.18073 -85.6387
112 1 3 -1.0000 2.34837 1.4101601 -88.151
113 1 7 0.0000 2.54642 2.20607 -82.7826
114 1 12 0.0000 -0.14023 0.719741 -81.8486
115 1 2 0.0000 -0.193896 1.11321 -79.2105
116 1 12 0.0000 -0.284408 -1.22065 -84.4157
117 1 6 0.0000 -2.39904 -0.529254 -86.8524
118 1 1 1.0000 -2.13911 1.12516 -89.1423
119 1 9 0.0000 2.57745 -3.0659602 -83.699905
120 1 2 0.0000 3.7834299 -3.2471 -86.7498
121 1 2 0.0000 4.59992 -5.2784595 -82.03261
122 1 6 0.0000 7.83468 -5.09757 -81.517
123 1 1 1.0000 9.83626 -5.67329 -79.3141
124 1 2 0.0000 4.0688 -7.7737303 -79.475296
125 1 2 0.0000 2.6222 -8.156899 -76.8551
126 1 8 0.0000 3.14419 -11.1437 -76.55
127 1 2 0.0000 -0.210578 -8.26277 -74.0232
128 1 16 0.0000 -1.28502 -10.5105 -74.754196
129 1 2 0.0000 -0.364591 -8.11656 -70.2966
130 1 14 0.0000 -0.888393 -5.14864 -70.578094
131 1 17 0.0000 -0.067007996 -2.9573398 -71.7851
132 1 10 0.0000 -0.094975695 -5.10346 -73.350204
133 1 10 0.0000 0.551496 -2.82767 -74.081406
134 1 2 0.0000 0.245746 -8.22944 -66.8171
135 1 6 0.0000 2.55696 -10.6675005 -67.0787
136 1 1 1.0000 4.05977 -11.5871 -64.753
137 1 4 0.0000 2.71023 -6.30987 -65.932205
138 1 3 -1.0000 5.38677 -7.8899803 -62.5815
139 1 4 0.0000 5.08182 -7.5083704 -67.2546
140 1 3 -1.0000 6.4045696 -8.07968 -63.235897
141 1 4 0.0000 4.48544 -6.51041 -70.598206
142 1 16 0.0000 5.04467 -8.48338 -72.4077
143 1 12 0.0000 4.47342 -3.45962 -69.8216
144 1 8 0.0000 4.12981 -0.519995 -69.9651
145 1 9 0.0000 7.58367 -3.38915 -68.8375
146 1 13 0.0000 10.1264 -5.70967 -66.5347
147 1 9 0.0000 8.78861 -3.6510398 -71.7944
148 1 3 -1.0000 11.5304 -4.19838 -74.9833
149 1 9 0.0000 7.67677 -0.655765 -72.9624
150 1 14 0.0000 5.4881196 1.09847 -74.4283
151 1 14 0.0000 4.48993 2.66991 -76.5692
152 1 15 0.0000 2.9028902 1.58493 -74.6652
153 1 12 0.0000 9.19434 1.5823699 -71.412
154 1 8 0.0000 7.00632 3.4951699 -69.7198
155 1 12 0.0000 12.318601 0.825081 -72.3923
156 1 3 -1.0000 16.327799 0.224434 -71.1836
157 1 2 0.0000 12.499 3.54982 -74.075096
158 1 2 0.0000 14.928499 4.51436 -75.672005
159 1 7 0.0000 9.60052 3.2819102 -75.5786
160 1 6 0.0000 8.0824795 5.70113 -74.3727
161 1 12 0.0000 10.6945 3.37365 -78.611595
162 1 6 0.0000 12.4691 6.1841702 -79.8585
163 1 1 1.0000 11.5136 8.14011 -78.4836
164 1 12 0.0000 11.426801 0.17757401 -78.6389
165 1 6 0.0000 13.7841 0.00068526197 -77.2199
166 1 1 1.0000 15.486799 -1.53346 -75.3357
167 1 12 0.0000 8.37801 -0.74611 -78.2342
168 1 14 0.0000 6.44831 -3.0178401 -77.0333
169 1 14 0.0000 4.56358 -3.7620301 -75.0733
170 1 15 0.0000 6.26183 -5.2840195 -75.887596
171 1 2 0.0000 6.11638 -0.061872497 -80.6211
172 1 8 0.0000 3.7292001 -1.58895 -79.3554
173 1 7 0.0000 6.7992096 -0.320607 -83.524796
174 1 6 0.0000 9.41231 -1.3174701 -84.7632
175 1 12 0.0000 8.67603 3.31897 -82.9647
176 1 2 0.0000 7.08973 6.82586 -81.3681
177 1 16 0.0000 6.49956 6.1990795 -78.9215
178 1 2 0.0000 4.73038 7.05141 -83.4282
179 1 6 0.0000 6.5253105 5.29772 -85.6686
180 1 1 1.0000 6.46558 3.10953 -87.596596
181 1 2 0.0000 1.90871 8.5677805 -83.2755
182 1 13 0.0000 2.07291 8.505489 -87.712204
183 1 2 0.0000 1.8970101 10.9473 -80.288895
184 1 8 0.0000 0.162972 13.772 -80.4996
185 1 2 0.0000 3.66866 10.974501 -77.687805
186 1 10 0.0000 3.24142 13.722 -76.2684
187 1 10 0.0000 3.23201 15.561399 -74.4842
188 1 10 0.0000 1.4207 15.910701 -76.1975
189 1 11 0.0000 7.44207 10.3974 -77.0534
190 1 2 0.0000 9.161409 10.095901 -74.4661
191 1 2 0.0000 11.3372 8.72519 -71.7184
192 1 8 0.0000 12.352099 10.4843 -69.3565
193 1 2 0.0000 11.883 5.08164 -68.9903
194 1 6 0.0000 14.8814 5.03274 -69.7677
195 1 1 1.0000 17.1803 3.8986201 -68.524
196 1 2 0.0000 15.4818 1.08828 -66.1441
197 1 6 0.0000 17.1236 2.38499 -63.6653
198 1 1 1.0000 17.0387 3.90473 -61.209602
199 1 4 0.0000 14.1935005 -1.2318699 -63.910698
200 1 6 0.0000 11.9391 -3.50487 -62.5978
201 1 1 1.0000 9.15885 -4.63099 -61.7848
202 1 4 0.0000 13.0117 0.819733 -61.7279
203 1 16 0.0000 11.9171 0.583952 -59.351803
204 1 4 0.0000 11.9832 3.29703 -64.0801
205 1 3 -1.0000 14.703501 6.17101 -64.766205
206 1 4 0.0000 10.124201 1.40337 -65.7245
207 1 7 0.0000 11.4996 -0.63193 -67.7497
208 1 1 1.0000 13.0319 -3.2026699 -70.0075
209 1 7 0.0000 8.80002 0.0023842 -63.3353
210 1 3 -1.0000 7.1785097 -1.3663199 -59.384697
211 1 7 0.0000 7.10146 2.43154 -62.108402
212 1 3 -1.0000 6.1318803 -0.369626 -59.634598
213 1 7 0.0000 5.70946 3.3067 -64.8177
214 1 8 0.0000 7.62152 5.65547 -65.5633
215 1 7 0.0000 4.18749 0.55574703 -65.366
216 1 8 0.0000 5.22715 -2.32156 -64.8162
217 1 13 0.0000 2.5858 1.0043 -62.481598
218 1 7 0.0000 0.76930904 3.02937 -63.5858
219 1 14 0.0000 1.10723 5.5616198 -65.2787
220 1 14 0.0000 2.37203 6.2884903 -67.3068
221 1 15 0.0000 0.460434 7.9709296 -66.1811
222 1 7 0.0000 -0.69021904 0.678683 -65.557495
223 1 8 0.0000 0.79602003 -2.10222 -66.870895
224 1 7 0.0000 -1.87896 -1.07075 -63.046898
225 1 6 0.0000 0.654535 -3.39517 -61.8053
226 1 1 1.0000 3.6169698 -4.02438 -60.623203
227 1 9 0.0000 -3.5667398 1.5030301 -61.582497
228 1 6 0.0000 -2.56194 1.4590099 -58.460697
229 1 1 1.0000 -4.25489 1.7678 -56.1632
230 1 7 0.0000 -5.5307503 2.0934901 -64.0338
231 1 9 0.0000 -7.11246 -0.81975305 -63.88
232 1 16 0.0000 -8.25276 -1.6887499 -66.2522
233 1 9 0.0000 -7.8711996 -0.525252 -60.952
234 1 2 0.0000 -5.1089196 -2.8385699 -59.473198
235 1 3 -1.0000 -7.6994095 2.8081102 -60.1568
236 1 3 -1.0000 -8.0119095 4.4671497 -57.4947

Bonds

1 1 1 2
2 1 31 33
3 1 33 34
4 1 34 36
5 1 36 38
6 1 38 42
7 1 42 44
8 1 44 46
9 1 46 48
10 1 48 51
11 1 51 52
12 1 52 53
13 1 53 56
14 1 56 60
15 1 60 63
16 1 63 65
17 1 65 66
18 1 66 68
19 1 68 70
20 1 70 72
21 1 72 76
22 1 76 77
23 1 77 79
24 1 79 83
25 1 83 84
26 1 84 87
27 1 87 90
28 1 90 92
29 1 92 93
30 1 93 95
31 1 95 96
32 1 96 98
33 1 98 99
34 1 99 103
35 1 103 105
36 1 105 109
37 1 121 124
38 1 124 125
39 1 125 127
40 1 127 129
41 1 129 134
42 1 153 155
43 1 155 157
44 1 171 173
45 1 173 175
46 1 175 176
47 1 176 178
48 1 178 181
49 1 181 183
50 1 183 185
51 1 185 189
52 1 189 190
53 1 190 191
54 1 191 193
55 1 193 196
56 2 2 3
57 3 6 7
58 4 8 9
59 5 9 10
60 4 12 13
61 5 13 14
62 4 15 16
63 5 16 17
64 6 20 21
65 3 26 27
66 4 28 29
67 5 29 30
68 6 31 32
69 3 34 35
70 6 36 37
71 2 38 39
72 3 46 47
73 4 48 49
74 5 49 50
75 4 53 54
76 5 54 55
77 2 56 57
78 4 60 61
79 5 61 62
80 7 66 67
81 8 68 69
82 9 70 71
83 2 72 73
84 9 77 78
85 6 79 80
86 4 84 85
87 10 85 86
88 4 87 88
89 5 88 89
90 3 93 94
91 7 96 97
92 6 99 100
93 8 105 106
94 2 111 112
95 8 114 115
96 4 116 117
97 5 117 118
98 8 119 120
99 4 121 122
100 5 122 123
101 11 129 130
102 4 134 135
103 5 135 136
104 3 137 138
105 3 139 140
106 9 143 144
107 12 145 146
108 3 147 148
109 8 149 150
110 9 153 154
111 3 155 156
112 8 157 158
113 7 159 160
114 4 161 162
115 5 162 163
116 4 164 165
117 5 165 166
118 8 167 168
119 7 173 174
120 4 178 179
121 5 179 180
122 12 181 182
123 6 185 186
124 4 193 194
125 5 194 195
126 4 196 197
127 5 197 198
128 4 199 200
129 5 200 201
130 3 204 205
131 4 206 207
132 10 207 208
133 3 209 210
134 2 211 212
135 9 213 214
136 8 218 219
137 9 222 223
138 4 224 225
139 5 225 226
140 4 227 228
141 5 228 229
142 8 233 234
143 3 235 236
144 13 2 4
145 14 4 6
146 14 6 8
147 14 8 11
148 14 11 12
149 14 12 15
150 14 15 18
151 14 18 20
152 14 20 24
153 14 24 26
154 14 26 28
155 13 28 31
156 13 109 111
157 14 111 113
158 14 113 114
159 14 114 116
160 14 116 119
161 13 119 121
162 13 134 137
163 14 137 139
164 14 139 141
165 14 141 143
166 14 143 145
167 14 145 147
168 14 147 149
169 13 149 153
170 13 157 159
171 14 159 161
172 14 161 164
173 14 164 167
174 13 167 171
175 13 196 199
176 14 199 202
177 14 202 204
178 14 204 206
179 14 206 209
180 14 209 211
181 14 211 213
182 14 213 215
183 14 215 217
184 14 217 218
185 14 218 222
186 14 222 224
187 14 224 227
188 14 227 230
189 14 230 231
190 14 231 233
191 13 233 235
192 15 4 5
193 14 18 19
194 16 21 22
195 16 21 23
196 16 22 23
197 15 24 25
198 16 39 40
199 16 39 41
200 16 40 41
201 17 42 43
202 15 44 45
203 16 57 58
204 16 57 59
205 16 58 59
206 17 63 64
207 16 73 74
208 16 73 75
209 16 74 75
210 16 80 81
211 16 80 82
212 16 81 82
213 17 90 91
214 16 100 101
215 16 100 102
216 16 101 102
217 17 103 104
218 16 106 107
219 16 106 108
220 16 107 108
221 17 109 110
222 14 125 126
223 17 127 128
224 16 130 131
225 16 130 132
226 16 131 132
227 16 131 133
228 16 132 133
229 17 141 142
230 16 150 151
231 16 150 152
232 16 151 152
233 16 168 169
234 16 168 170
235 16 169 170
236 14 171 172
237 17 176 177
238 14 183 184
239 16 186 187
240 16 186 188
241 16 187 188
242 14 191 192
243 17 202 203
244 14 215 216
245 16 219 220
246 16 219 221
247 16 220 221
248 17 231 232

Angles

1 1 1 2 4
2 1 2 4 6
3 2 4 6 8
4 2 6 8 11
5 2 8 11 12
6 2 11 12 15
7 2 12 15 18
8 2 15 18 20
9 2 18 20 24
10 2 20 24 26
11 2 24 26 28
12 3 26 28 31
13 3 28 31 33
14 3 31 33 34
15 3 33 34 36
16 3 34 36 38
17 3 36 38 42
18 1 38 42 44
19 1 42 44 46
20 3 44 46 48
21 3 46 48 51
22 3 48 51 52
23 3 51 52 53
24 1 52 53 56
25 1 53 56 60
26 1 56 60 63
27 1 60 63 65
28 4 63 65 66
29 1 65 66 68
30 1 66 68 70
31 3 68 70 72
32 3 70 72 76
33 3 72 76 77
34 3 76 77 79
35 3 77 79 83
36 3 79 83 84
37 3 83 84 87
38 3 84 87 90
39 3 87 90 92
40 3 90 92 93
41 3 92 93 95
42 1 93 95 96
43 3 95 96 98
44 3 96 98 99
45 3 98 99 103
46 1 99 103 105
47 1 103 105 109
48 1 105 109 111
49 1 109 111 113
50 2 111 113 114
51 2 113 114 116
52 2 114 116 119
53 1 116 119 121
54 1 119 121 124
55 1 121 124 125
56 1 124 125 127
57 1 125 127 129
58 1 127 129 134
59 1 129 134 137
60 4 134 137 139
61 2 137 139 141
62 2 139 141 143
63 2 141 143 145
64 2 143 145 147
65 2 145 147 149
66 3 147 149 153
67 3 149 153 155
68 3 153 155 157
69 3 155 157 159
70 5 157 159 161
71 5 159 161 164
72 2 161 164 167
73 4 164 167 171
74 4 167 171 173
75 3 171 173 175
76 3 173 175 176
77 3 175 176 178
78 1 176 178 181
79 1 178 181 183
80 1 181 183 185
81 1 183 185 189
82 1 185 189 190
83 1 189 190 191
84 1 190 191 193
85 1 191 193 196
86 1 193 196 199
87 4 196 199 202
88 2 199 202 204
89 2 202 204 206
90 2 204 206 209
91 2 206 209 211
92 2 209 211 213
93 2 211 213 215
94 2 213 215 217
95 2 215 217 218
96 2 217 218 222
97 2 218 222 224
98 2 222 224 227
99 2 224 227 230
100 2 227 230 231
101 2 230 231 233
102 1 231 233 235
103 6 1 2 3
104 6 2 4 5
105 6 4 6 7
106 6 6 8 9
107 6 11 12 13
108 6 12 15 16
109 6 15 18 19
110 6 18 20 21
111 6 20 24 25
112 6 24 26 27
113 6 26 28 29
114 6 28 31 32
115 6 33 34 35
116 6 34 36 37
117 6 36 38 39
118 6 38 42 43
119 6 42 44 45
120 6 44 46 47
121 6 46 48 49
122 6 52 53 54
123 6 53 56 57
124 6 56 60 61
125 6 60 63 64
126 6 65 66 67
127 6 66 68 69
128 6 68 70 71
129 6 70 72 73
130 6 76 77 78
131 6 77 79 80
132 6 83 84 85
133 6 84 87 88
134 6 87 90 91
135 6 92 93 94
136 6 95 96 97
137 6 98 99 100
138 6 99 103 104
139 6 103 105 106
140 6 105 109 110
141 6 109 111 112
142 6 113 114 115
143 6 114 116 117
144 6 116 119 120
145 6 119 121 122
146 6 124 125 126
147 6 125 127 128
148 6 127 129 130
149 6 129 134 135
150 6 134 137 138
151 6 137 139 140
152 6 139 141 142
153 6 141 143 144
154 6 143 145 146
155 6 145 147 148
156 6 147 149 150
157 6 149 153 154
158 6 153 155 156
159 6 155 157 158
160 6 157 159 160
161 6 159 161 162
162 6 161 164 165
163 6 164 167 168
164 6 167 171 172
165 6 171 173 174
166 6 175 176 177
167 6 176 178 179
168 6 178 181 182
169 6 181 183 184
170 6 183 185 186
171 6 190 191 192
172 6 191 193 194
173 6 193 196 197
174 6 196 199 200
175 6 199 202 203
176 6 202 204 205
177 6 204 206 207
178 6 206 209 210
179 6 209 211 212
180 6 211 213 214
181 6 213 215 216
182 6 217 218 219
183 6 218 222 223
184 6 222 224 225
185 6 224 227 228
186 6 230 231 232
187 6 231 233 234
188 6 233 235 236
189 7 8 9 10
190 7 12 13 14
191 7 15 16 17
192 8 20 21 22
193 8 20 21 23
194 7 28 29 30
195 8 38 39 40
196 8 38 39 41
197 7 48 49 50
198 7 53 54 55
199 8 56 57 58
200 8 56 57 59
201 7 60 61 62
202 8 72 73 74
203 8 72 73 75
204 8 79 80 81
205 8 79 80 82
206 7 84 85 86
207 7 87 88 89
208 8 99 100 101
209 8 99 100 102
210 8 105 106 107
211 8 105 106 108
212 7 116 117 118
213 7 121 122 123
214 9 129 130 131
215 10 129 130 132
216 7 134 135 136
217 8 149 150 151
218 8 149 150 152
219 7 161 162 163
220 7 164 165 166
221 8 167 168 169
222 8 167 168 170
223 7 178 179 180
224 8 185 186 187
225 8 185 186 188
226 7 193 194 195
227 7 196 197 198
228 7 199 200 201
229 7 206 207 208
230 8 218 219 220
231 8 218 219 221
232 7 224 225 226
233 7 227 228 229

Dihedrals

1 1 4 6 8 11
2 1 6 8 11 12
3 1 8 11 12 15
4 1 11 12 15 18
5 1 12 15 18 20
6 1 15 18 20 24
7 1 18 20 24 26
8 1 20 24 26 28
9 1 111 113 114 116
10 1 113 114 116 119
11 1 137 139 141 143
12 1 139 141 143 145
13 1 141 143 145 147
14 1 143 145 147 149
15 1 159 161 164 167
16 1 199 202 204 206
17 1 202 204 206 209
18 1 204 206 209 211
19 1 206 209 211 213
20 1 209 211 213 215
21 1 211 213 215 217
22 1 213 215 217 218
23 1 215 217 218 222
24 1 217 218 222 224
25 1 218 222 224 227
26 1 222 224 227 230
27 1 224 227 230 231
28 1 227 230 231 233

Impropers

1 1 20 22 23 21
2 1 38 40 41 39
3 1 56 58 59 57
4 1 72 74 75 73
5 1 79 81 82 80
6 1 99 101 102 100
7 1 105 107 108 106
8 1 129 131 132 130
9 2 130 131 133 132
10 1 149 151 152 150
11 1 167 169 170 168
12 1 185 187 188 186
13 1 218 220 221 219

