comment

236 atoms
248 bonds
233 angles
28 dihedrals
13 impropers

17 atom types
17 bond types
10 angle types
1 dihedral types
2 improper types

-40.5 40.5 xlo xhi
-40.5 40.5 ylo yhi
-190.0 190.0 zlo zhi

Masses

1 72.0
2 72.0
3 72.0
4 72.0
5 72.0
6 72.0
7 72.0
8 72.0
9 72.0
10 45.0
11 72.0
12 72.0
13 72.0
14 45.0
15 45.0
16 72.0
17 45.0

PairIJ Coeffs

1 1 1.19503 4.699999999999999
1 2 1.3384336 4.699999999999999
1 3 1.3384336 4.699999999999999
1 4 0.956024 4.699999999999999
1 5 0.478012 4.699999999999999
1 6 0.5497137999999999 4.699999999999999
1 7 0.836521 4.699999999999999
1 8 0.478012 4.699999999999999
1 9 1.19503 4.699999999999999
1 10 0.7409186 4.699999999999999
1 11 1.3384336 4.699999999999999
1 12 1.19503 4.699999999999999
1 13 0.7409186 4.699999999999999
1 14 0.6453162 4.699999999999999
1 15 1.19503 4.699999999999999
1 16 1.19503 4.699999999999999
1 17 0.956024 4.699999999999999
2 2 1.3384336 4.699999999999999
2 3 1.3384336 4.699999999999999
2 4 1.19503 4.699999999999999
2 5 0.5497137999999999 4.699999999999999
2 6 0.6453162 4.699999999999999
2 7 0.836521 4.699999999999999
2 8 0.478012 4.699999999999999
2 9 1.19503 4.699999999999999
2 10 0.7409186 4.699999999999999
2 11 1.3384336 4.699999999999999
2 12 1.19503 4.699999999999999
2 13 0.7409186 4.699999999999999
2 14 0.6453162 4.699999999999999
2 15 1.3384336 4.699999999999999
2 16 1.3384336 4.699999999999999
2 17 1.19503 4.699999999999999
3 3 1.19503 4.699999999999999
3 4 1.19503 4.699999999999999
3 5 0.478012 4.699999999999999
3 6 0.5497137999999999 4.699999999999999
3 7 0.836521 4.699999999999999
3 8 0.478012 4.699999999999999
3 9 0.956024 4.699999999999999
3 10 0.7409186 4.699999999999999
3 11 1.3384336 4.699999999999999
3 12 1.19503 4.699999999999999
3 13 0.7409186 4.699999999999999
3 14 0.6453162 4.699999999999999
3 15 1.19503 4.699999999999999
3 16 1.19503 4.699999999999999
3 17 1.19503 4.699999999999999
4 4 0.956024 4.699999999999999
4 5 0.6453162 4.699999999999999
4 6 0.6453162 4.699999999999999
4 7 0.836521 4.699999999999999
4 8 0.6453162 4.699999999999999
4 9 1.075527 4.699999999999999
4 10 0.836521 4.699999999999999
4 11 0.956024 4.699999999999999
4 12 1.075527 4.699999999999999
4 13 0.836521 4.699999999999999
4 14 0.7409186 4.699999999999999
4 15 1.075527 4.699999999999999
4 16 1.075527 4.699999999999999
4 17 0.956024 4.699999999999999
5 5 0.836521 4.699999999999999
5 6 0.836521 4.699999999999999
5 7 0.7409186 4.699999999999999
5 8 0.836521 4.699999999999999
5 9 0.6453162 4.699999999999999
5 10 0.7409186 4.699999999999999
5 11 0.5497137999999999 4.699999999999999
5 12 0.6453162 4.699999999999999
5 13 0.7409186 4.699999999999999
5 14 0.7409186 4.699999999999999
5 15 0.7409186 4.699999999999999
5 16 0.7409186 4.699999999999999
5 17 0.6453162 4.699999999999999
6 6 0.836521 4.699999999999999
6 7 0.836521 4.699999999999999
6 8 0.836521 4.699999999999999
6 9 0.6453162 4.699999999999999
6 10 0.836521 4.699999999999999
6 11 0.6453162 4.699999999999999
6 12 0.6453162 4.699999999999999
6 13 0.836521 4.699999999999999
6 14 0.836521 4.699999999999999
6 15 0.836521 4.699999999999999
6 16 0.836521 4.699999999999999
6 17 0.6453162 4.699999999999999
7 7 0.836521 4.699999999999999
7 8 0.6453162 4.699999999999999
7 9 0.836521 4.699999999999999
7 10 0.836521 4.699999999999999
7 11 0.836521 4.699999999999999
7 12 0.836521 4.699999999999999
7 13 0.836521 4.699999999999999
7 14 0.836521 4.699999999999999
7 15 0.956024 4.699999999999999
7 16 0.956024 4.699999999999999
7 17 0.836521 4.699999999999999
8 8 0.836521 4.699999999999999
8 9 0.6453162 4.699999999999999
8 10 0.7409186 4.699999999999999
8 11 0.478012 4.699999999999999
8 12 0.6453162 4.699999999999999
8 13 0.7409186 4.699999999999999
8 14 0.7409186 4.699999999999999
8 15 0.6453162 4.699999999999999
8 16 0.6453162 4.699999999999999
8 17 0.6453162 4.699999999999999
9 9 0.956024 4.699999999999999
9 10 0.836521 4.699999999999999
9 11 0.956024 4.699999999999999
9 12 1.075527 4.699999999999999
9 13 0.836521 4.699999999999999
9 14 0.7409186 4.699999999999999
9 15 1.075527 4.699999999999999
9 16 1.075527 4.699999999999999
9 17 1.075527 4.699999999999999
10 10 0.62739075 4.3
10 11 0.7409186 4.699999999999999
10 12 0.836521 4.699999999999999
10 13 0.836521 4.699999999999999
10 14 0.62739075 4.3
10 15 0.62739075 4.3
10 16 0.836521 4.699999999999999
10 17 0.62739075 4.3
11 11 1.19503 4.699999999999999
11 12 0.956024 4.699999999999999
11 13 0.7409186 4.699999999999999
11 14 0.6453162 4.699999999999999
11 15 1.075527 4.699999999999999
11 16 1.075527 4.699999999999999
11 17 0.956024 4.699999999999999
12 12 1.075527 4.699999999999999
12 13 0.836521 4.699999999999999
12 14 0.7409186 4.699999999999999
12 15 1.075527 4.699999999999999
12 16 1.075527 4.699999999999999
12 17 1.075527 4.699999999999999
13 13 0.836521 4.699999999999999
13 14 0.836521 4.699999999999999
13 15 0.836521 4.699999999999999
13 16 0.836521 4.699999999999999
13 17 0.836521 4.699999999999999
14 14 0.62739075 4.3
14 15 0.62739075 4.3
14 16 0.836521 4.699999999999999
14 17 0.5556889500000001 4.3
15 15 0.80664525 4.3
15 16 1.075527 4.699999999999999
15 17 0.80664525 4.3
16 16 1.075527 4.699999999999999
16 17 1.075527 4.699999999999999
17 17 0.7170179999999999 4.3

Bond Coeffs

1 1.4937875 3.5
2 8.962725 3.2
3 5.97515 4.0
4 5.97515 3.3000000000000003
5 5.97515 2.8000000000000003
6 8.962725 3.1
7 8.962725 3.0
8 5.97515 3.2
9 8.962725 3.3000000000000003
10 5.97515 3.4000000000000004
11 5.97515 3.0
12 2.987575 4.0
13 11.9503 3.3000000000000003
14 11.9503 3.1
15 11.9503 2.6500000000000004
16 11.9503 2.7
17 11.9503 2.6

Angle Coeffs

1 2.39006 127
2 83.6521 96
3 2.39006 100
4 2.39006 130
5 11.9503 98
6 2.987575 100
7 2.987575 180
8 5.97515 150
9 5.97515 210
10 5.97515 90

Dihedral Coeffs

1 95.6024 1 -120 0

Improper Coeffs

1 5.97515 0
2 23.9006 0

Atoms

1 1 1 1.0000 1.2549999 -0.027 -48.818
2 1 2 0.0000 0.228977 0.246529 -51.3624
3 1 3 -1.0000 -1.12831 -0.90329105 -53.355198
4 1 4 0.0000 1.78496 2.14982 -54.366497
5 1 5 0.0000 3.15392 0.264104 -55.6257
6 1 4 0.0000 1.69917 5.2804 -54.541504
7 1 3 -1.0000 -1.85122 5.75657 -55.735203
8 1 4 0.0000 4.4362397 5.73824 -56.3068
9 1 6 0.0000 6.91055 3.92396 -55.025
10 1 1 1.0000 7.96824 1.4147 -55.812603
11 1 4 0.0000 3.79071 4.55083 -59.025303
12 1 7 0.0000 1.5157499 6.7055798 -60.1428
13 1 6 0.0000 -1.7107999 7.02542 -60.813198
14 1 1 1.0000 -4.4276 6.1588902 -59.4453
15 1 7 0.0000 3.5335999 9.46837 -59.6213
16 1 6 0.0000 1.86644 10.8032 -57.0941
17 1 1 1.0000 -0.270434 10.171 -55.163498
18 1 7 0.0000 6.0503297 9.21166 -61.472504
19 1 8 0.0000 8.02528 7.20787 -60.1408
20 1 9 0.0000 4.66028 9.67678 -64.1892
21 1 10 0.0000 5.13373 9.60539 -67.3788
22 1 10 0.0000 4.49125 9.3529 -69.8656
23 1 10 0.0000 6.8703504 9.09642 -69.4287
24 1 9 0.0000 3.51583 12.7217 -63.7887
25 1 5 0.0000 1.26178 14.2172 -63.3605
26 1 9 0.0000 6.2984505 14.2092 -63.3117
27 1 11 0.0000 5.23525 17.3932 -65.5002
28 1 9 0.0000 7.99316 13.2479 -66.0187
29 1 6 0.0000 9.6183 10.7825 -65.4775
30 1 1 1.0000 11.3794 9.29504 -64.1356
31 1 12 0.0000 6.9556704 13.976601 -68.9196
32 1 13 0.0000 8.547689 13.9053 -71.8695
33 1 7 0.0000 3.40358 14.379701 -69.137405
34 1 12 0.0000 1.2048401 12.6199 -68.056305
35 1 11 0.0000 -1.4911699 16.0276 -68.1422
36 1 12 0.0000 -0.293125 12.4736 -71.6577
37 1 13 0.0000 -0.372802 15.6599 -71.1781
38 1 2 0.0000 -0.67743397 9.12364 -70.851
39 1 14 0.0000 1.3113899 7.05491 -72.112595
40 1 15 0.0000 3.5517902 5.89792 -71.9991
41 1 15 0.0000 3.33814 7.4576197 -74.0477
42 1 2 0.0000 -3.74987 8.06538 -70.7853
43 1 16 0.0000 -4.6161404 8.2879 -73.390495
44 1 2 0.0000 -4.1318398 6.6796303 -67.7313
45 1 5 0.0000 -3.1220798 4.45112 -67.5431
46 1 2 0.0000 -7.03955 6.6050797 -65.3805
47 1 3 -1.0000 -5.83571 9.47836 -62.5813
48 1 12 0.0000 -10.4449 4.04526 -64.9391
49 1 6 0.0000 -12.0918 2.8776 -62.0543
50 1 1 1.0000 -12.2147 2.7244601 -58.6968
51 1 12 0.0000 -12.5605 6.3397403 -66.6296
52 1 2 0.0000 -9.0066395 8.11896 -67.2736
53 1 2 0.0000 -10.3331 10.7678995 -66.445496
54 1 6 0.0000 -10.5974 9.141399 -62.9332
55 1 1 1.0000 -9.43349 7.46031 -60.6312
56 1 2 0.0000 -9.46956 13.0858 -69.8455
57 1 14 0.0000 -10.664801 10.557899 -71.703
58 1 15 0.0000 -9.18688 8.45314 -72.543
59 1 15 0.0000 -11.7130995 7.8926997 -71.9115
60 1 2 0.0000 -5.8485403 12.715799 -71.2759
61 1 6 0.0000 -4.61274 12.1168 -68.3878
62 1 1 1.0000 -3.42808 11.2296 -66.1557
63 1 2 0.0000 -3.5557199 12.7706 -75.7008
64 1 16 0.0000 -3.62167 14.8278 -77.0122
65 1 2 0.0000 -1.12965 9.77724 -76.249
66 1 11 0.0000 -0.343359 6.1470003 -76.8015
67 1 6 0.0000 1.61587 5.743 -79.0293
68 1 2 0.0000 -1.64763 4.4841 -75.0437
69 1 2 0.0000 -4.46345 3.87064 -76.7573
70 1 2 0.0000 -2.23453 1.74245 -72.543304
71 1 8 0.0000 0.459467 2.13538 -70.1238
72 1 12 0.0000 -5.91958 2.48004 -73.7137
73 1 14 0.0000 -7.0495405 3.3463202 -71.3771
74 1 15 0.0000 -9.53009 4.23456 -70.5615
75 1 15 0.0000 -7.4273996 3.1622899 -68.8076
76 1 12 0.0000 -7.4203997 -1.14291 -72.8345
77 1 2 0.0000 -5.0615797 -2.32838 -71.300705
78 1 8 0.0000 -4.1505103 -0.855057 -68.7028
79 1 12 0.0000 -5.77255 -5.50084 -70.2368
80 1 10 0.0000 -4.50689 -6.21344 -67.276505
81 1 10 0.0000 -3.6469998 -5.9175005 -64.6221
82 1 10 0.0000 -6.2335997 -6.94829 -65.1534
83 1 12 0.0000 -5.3298097 -7.82565 -72.5628
84 1 2 0.0000 -5.1074 -6.8829603 -76.812
85 1 7 0.0000 -4.0033298 -4.10405 -75.8191
86 1 1 1.0000 -3.61513 -1.11516 -76.135895
87 1 2 0.0000 -3.4770799 -8.24897 -80.1871
88 1 6 0.0000 -0.623287 -9.17807 -80.2234
89 1 1 1.0000 0.686236 -11.5914 -80.9944
90 1 12 0.0000 -1.91522 -4.20731 -79.928696
91 1 16 0.0000 0.00230381 -4.18222 -78.635895
92 1 12 0.0000 -4.76095 -2.7835102 -81.7661
93 1 2 0.0000 -8.2875 -0.609302 -80.812904
94 1 11 0.0000 -8.6541195 -3.29195 -77.3972
95 1 11 0.0000 -8.5055 1.7111399 -78.1976
96 1 7 0.0000 -10.354 4.22508 -75.6711
97 1 6 0.0000 -12.751101 2.70247 -75.3225
98 1 12 0.0000 -8.60144 6.9013205 -77.3763
99 1 2 0.0000 -8.488871 5.43546 -80.8897
100 1 10 0.0000 -7.25312 7.6413603 -82.69769
101 1 10 0.0000 -6.05861 7.52524 -84.6945
102 1 10 0.0000 -7.53656 9.912359 -83.948296
103 1 2 0.0000 -4.7989197 3.81413 -82.1129
104 1 16 0.0000 -5.5202503 2.3210201 -84.007904
105 1 2 0.0000 -2.19541 5.3671002 -82.443
106 1 14 0.0000 -3.0881 7.8729897 -81.1459
107 1 14 0.0000 -4.5805697 9.2552 -79.613
108 1 15 0.0000 -3.032 10.2328005 -81.2096
109 1 2 0.0000 -1.3889401 4.69337 -85.90379
110 1 16 0.0000 -2.4697099 6.10474 -87.7334
111 1 4 0.0000 1.4743 3.2971098 -85.5317
112 1 3 -1.0000 2.09151 1.57216 -87.998505
113 1 7 0.0000 2.3031201 2.42362 -82.809
114 1 12 0.0000 -0.194429 0.577432 -81.8672
115 1 2 0.0000 -0.0084867105 1.4475 -78.8907
116 1 12 0.0000 -0.19344401 -1.3225601 -84.244606
117 1 6 0.0000 -2.24113 -0.692142 -86.543304
118 1 1 1.0000 -2.17805 0.110678 -89.06081
119 1 9 0.0000 2.6041298 -3.01196 -83.376305
120 1 2 0.0000 3.66783 -3.1536498 -86.446
121 1 2 0.0000 4.48632 -5.2345095 -81.7564
122 1 6 0.0000 7.81631 -5.15635 -81.281006
123 1 1 1.0000 10.0378 -5.26221 -78.945
124 1 2 0.0000 3.8442998 -6.79669 -79.4263
125 1 2 0.0000 2.5402098 -8.24449 -77.1292
126 1 8 0.0000 3.60863 -11.1043 -76.6471
127 1 2 0.0000 -0.116715 -8.49883 -74.0084
128 1 16 0.0000 -1.4602699 -10.4248 -74.6353
129 1 2 0.0000 -0.784772 -8.25861 -70.2048
130 1 14 0.0000 -0.88844 -5.1858 -70.7064
131 1 17 0.0000 -0.014294099 -2.97791 -71.8042
132 1 10 0.0000 0.0846764 -5.2866 -73.3922
133 1 10 0.0000 0.723978 -2.56111 -73.9854
134 1 2 0.0000 0.333323 -8.3645 -66.5471
135 1 6 0.0000 2.60641 -10.7523 -67.1462
136 1 1 1.0000 4.02553 -11.6605 -64.5089
137 1 4 0.0000 2.6785698 -6.1153197 -65.8514
138 1 3 -1.0000 5.5667105 -7.7480297 -62.6796
139 1 4 0.0000 5.26977 -7.47365 -67.375
140 1 3 -1.0000 6.39313 -8.138391 -63.196404
141 1 4 0.0000 4.56151 -6.37701 -70.5756
142 1 16 0.0000 4.99501 -8.48643 -72.0943
143 1 12 0.0000 4.50789 -3.22192 -69.8572
144 1 8 0.0000 4.29635 -0.65736705 -69.9418
145 1 9 0.0000 7.65464 -3.08547 -68.7397
146 1 13 0.0000 10.278701 -5.58419 -66.508194
147 1 9 0.0000 8.92871 -3.4552402 -71.5558
148 1 3 -1.0000 11.7846 -3.96804 -74.9014
149 1 9 0.0000 7.87153 -0.71377504 -72.9378
150 1 14 0.0000 5.5592103 0.86138195 -74.7183
151 1 14 0.0000 4.18916 2.52211 -76.5533
152 1 15 0.0000 2.90095 1.54428 -74.6202
153 1 12 0.0000 9.12342 1.5726 -71.314705
154 1 8 0.0000 6.77966 3.24747 -69.9141
155 1 12 0.0000 12.5957 0.847113 -72.0904
156 1 3 -1.0000 16.5715 0.43423897 -71.188
157 1 2 0.0000 12.6583 3.81498 -73.9422
158 1 2 0.0000 15.0607 5.12385 -75.647995
159 1 7 0.0000 9.6678295 3.5646 -75.486
160 1 6 0.0000 8.18203 5.4885798 -74.4327
161 1 12 0.0000 10.8136 3.5198 -78.461296
162 1 6 0.0000 12.575001 6.23249 -79.7428
163 1 1 1.0000 12.5976 8.978271 -79.9204
164 1 12 0.0000 11.3328 0.153043 -78.5931
165 1 6 0.0000 14.082299 0.0607783 -77.2555
166 1 1 1.0000 15.4807 -0.98370403 -75.2921
167 1 12 0.0000 8.4116 -0.802073 -78.2642
168 1 14 0.0000 6.42727 -3.04703 -76.8276
169 1 14 0.0000 4.87854 -3.9003599 -74.997
170 1 15 0.0000 6.37708 -5.5967703 -75.6812
171 1 2 0.0000 6.1406703 0.0923925 -80.5204
172 1 8 0.0000 3.8167 -1.31177 -79.388
173 1 7 0.0000 6.8582897 -0.517659 -83.3242
174 1 6 0.0000 9.59646 -1.2344899 -84.4781
175 1 12 0.0000 8.28193 3.3552501 -83.1496
176 1 2 0.0000 7.67899 6.97396 -81.105804
177 1 16 0.0000 6.69362 6.0386 -79.0263
178 1 2 0.0000 4.7116 6.7215595 -83.4436
179 1 6 0.0000 6.44376 5.3891497 -85.653496
180 1 1 1.0000 6.08283 3.7157 -87.8616
181 1 2 0.0000 1.62337 8.66344 -83.7319
182 1 13 0.0000 2.01456 8.24885 -87.6849
183 1 2 0.0000 1.83681 11.0244 -80.3049
184 1 8 0.0000 0.250245 13.7708 -80.297005
185 1 2 0.0000 3.94357 11.0522995 -77.7391
186 1 10 0.0000 3.6743798 13.814401 -76.3065
187 1 10 0.0000 3.40858 15.6357 -74.5533
188 1 10 0.0000 1.54045 15.556601 -76.088196
189 1 11 0.0000 7.4229 10.872101 -76.9557
190 1 2 0.0000 9.40878 9.72943 -74.4675
191 1 2 0.0000 11.365 8.288509 -71.704796
192 1 8 0.0000 12.3932 10.4078 -69.482895
193 1 2 0.0000 11.8784 5.08192 -68.5143
194 1 6 0.0000 14.8351 5.18429 -69.6957
195 1 1 1.0000 17.2173 4.2119303 -68.7595
196 1 2 0.0000 14.9841 1.6129699 -66.2145
197 1 6 0.0000 17.1892 2.66597 -63.6031
198 1 1 1.0000 16.7028 4.33535 -61.250603
199 1 4 0.0000 13.9652 -1.13375 -63.8176
200 1 6 0.0000 12.0261 -3.55958 -62.526203
201 1 1 1.0000 8.94661 -4.51782 -61.9158
202 1 4 0.0000 13.098001 1.02148 -61.5564
203 1 16 0.0000 11.8969 0.53096104 -59.243004
204 1 4 0.0000 11.8888 3.42181 -63.822998
205 1 3 -1.0000 14.7936 6.17764 -64.7535
206 1 4 0.0000 10.165 1.4212701 -65.4597
207 1 7 0.0000 11.4286995 -0.83606 -67.8445
208 1 1 1.0000 13.2495 -2.96635 -69.6922
209 1 7 0.0000 8.58795 0.0628374 -63.218597
210 1 3 -1.0000 7.04802 -1.45442 -59.266098
211 1 7 0.0000 7.0519 2.59464 -62.016502
212 1 3 -1.0000 6.37089 -0.615635 -59.5483
213 1 7 0.0000 5.7001 3.23356 -64.805595
214 1 8 0.0000 7.46624 5.59348 -65.464005
215 1 7 0.0000 4.29257 0.46861702 -65.0925
216 1 8 0.0000 5.30921 -2.55842 -64.6379
217 1 13 0.0000 2.51107 1.04227 -62.459103
218 1 7 0.0000 0.554294 3.1387 -63.6029
219 1 14 0.0000 1.00422 5.6760798 -65.2551
220 1 14 0.0000 2.28228 6.0103602 -67.4533
221 1 15 0.0000 0.48492402 7.8420596 -66.2026
222 1 7 0.0000 -1.05264 0.749683 -65.5531
223 1 8 0.0000 0.46130097 -2.03885 -66.9547
224 1 7 0.0000 -1.98855 -0.994178 -62.978302
225 1 6 0.0000 0.55274796 -3.26241 -61.971596
226 1 1 1.0000 3.49398 -4.13694 -60.5286
227 1 9 0.0000 -3.4283998 1.36418 -61.553
228 1 6 0.0000 -2.5261598 1.48209 -58.5639
229 1 1 1.0000 -4.58545 1.5128499 -56.510803
230 1 7 0.0000 -5.60772 1.9717801 -64.028404
231 1 9 0.0000 -7.2634797 -0.809152 -63.902798
232 1 16 0.0000 -8.10502 -1.61394 -66.2343
233 1 9 0.0000 -8.06738 -0.43924 -60.9298
234 1 2 0.0000 -6.1318803 -2.56899 -59.2306
235 1 3 -1.0000 -7.68547 2.87375 -59.9124
236 1 3 -1.0000 -8.202351 4.57118 -57.1415

Bonds

1 1 1 2
2 1 31 33
3 1 33 34
4 1 34 36
5 1 36 38
6 1 38 42
7 1 42 44
8 1 44 46
9 1 46 48
10 1 48 51
11 1 51 52
12 1 52 53
13 1 53 56
14 1 56 60
15 1 60 63
16 1 63 65
17 1 65 66
18 1 66 68
19 1 68 70
20 1 70 72
21 1 72 76
22 1 76 77
23 1 77 79
24 1 79 83
25 1 83 84
26 1 84 87
27 1 87 90
28 1 90 92
29 1 92 93
30 1 93 95
31 1 95 96
32 1 96 98
33 1 98 99
34 1 99 103
35 1 103 105
36 1 105 109
37 1 121 124
38 1 124 125
39 1 125 127
40 1 127 129
41 1 129 134
42 1 153 155
43 1 155 157
44 1 171 173
45 1 173 175
46 1 175 176
47 1 176 178
48 1 178 181
49 1 181 183
50 1 183 185
51 1 185 189
52 1 189 190
53 1 190 191
54 1 191 193
55 1 193 196
56 2 2 3
57 3 6 7
58 4 8 9
59 5 9 10
60 4 12 13
61 5 13 14
62 4 15 16
63 5 16 17
64 6 20 21
65 3 26 27
66 4 28 29
67 5 29 30
68 6 31 32
69 3 34 35
70 6 36 37
71 2 38 39
72 3 46 47
73 4 48 49
74 5 49 50
75 4 53 54
76 5 54 55
77 2 56 57
78 4 60 61
79 5 61 62
80 7 66 67
81 8 68 69
82 9 70 71
83 2 72 73
84 9 77 78
85 6 79 80
86 4 84 85
87 10 85 86
88 4 87 88
89 5 88 89
90 3 93 94
91 7 96 97
92 6 99 100
93 8 105 106
94 2 111 112
95 8 114 115
96 4 116 117
97 5 117 118
98 8 119 120
99 4 121 122
100 5 122 123
101 11 129 130
102 4 134 135
103 5 135 136
104 3 137 138
105 3 139 140
106 9 143 144
107 12 145 146
108 3 147 148
109 8 149 150
110 9 153 154
111 3 155 156
112 8 157 158
113 7 159 160
114 4 161 162
115 5 162 163
116 4 164 165
117 5 165 166
118 8 167 168
119 7 173 174
120 4 178 179
121 5 179 180
122 12 181 182
123 6 185 186
124 4 193 194
125 5 194 195
126 4 196 197
127 5 197 198
128 4 199 200
129 5 200 201
130 3 204 205
131 4 206 207
132 10 207 208
133 3 209 210
134 2 211 212
135 9 213 214
136 8 218 219
137 9 222 223
138 4 224 225
139 5 225 226
140 4 227 228
141 5 228 229
142 8 233 234
143 3 235 236
144 13 2 4
145 14 4 6
146 14 6 8
147 14 8 11
148 14 11 12
149 14 12 15
150 14 15 18
151 14 18 20
152 14 20 24
153 14 24 26
154 14 26 28
155 13 28 31
156 13 109 111
157 14 111 113
158 14 113 114
159 14 114 116
160 14 116 119
161 13 119 121
162 13 134 137
163 14 137 139
164 14 139 141
165 14 141 143
166 14 143 145
167 14 145 147
168 14 147 149
169 13 149 153
170 13 157 159
171 14 159 161
172 14 161 164
173 14 164 167
174 13 167 171
175 13 196 199
176 14 199 202
177 14 202 204
178 14 204 206
179 14 206 209
180 14 209 211
181 14 211 213
182 14 213 215
183 14 215 217
184 14 217 218
185 14 218 222
186 14 222 224
187 14 224 227
188 14 227 230
189 14 230 231
190 14 231 233
191 13 233 235
192 15 4 5
193 14 18 19
194 16 21 22
195 16 21 23
196 16 22 23
197 15 24 25
198 16 39 40
199 16 39 41
200 16 40 41
201 17 42 43
202 15 44 45
203 16 57 58
204 16 57 59
205 16 58 59
206 17 63 64
207 16 73 74
208 16 73 75
209 16 74 75
210 16 80 81
211 16 80 82
212 16 81 82
213 17 90 91
214 16 100 101
215 16 100 102
216 16 101 102
217 17 103 104
218 16 106 107
219 16 106 108
220 16 107 108
221 17 109 110
222 14 125 126
223 17 127 128
224 16 130 131
225 16 130 132
226 16 131 132
227 16 131 133
228 16 132 133
229 17 141 142
230 16 150 151
231 16 150 152
232 16 151 152
233 16 168 169
234 16 168 170
235 16 169 170
236 14 171 172
237 17 176 177
238 14 183 184
239 16 186 187
240 16 186 188
241 16 187 188
242 14 191 192
243 17 202 203
244 14 215 216
245 16 219 220
246 16 219 221
247 16 220 221
248 17 231 232

Angles

1 1 1 2 4
2 1 2 4 6
3 2 4 6 8
4 2 6 8 11
5 2 8 11 12
6 2 11 12 15
7 2 12 15 18
8 2 15 18 20
9 2 18 20 24
10 2 20 24 26
11 2 24 26 28
12 3 26 28 31
13 3 28 31 33
14 3 31 33 34
15 3 33 34 36
16 3 34 36 38
17 3 36 38 42
18 1 38 42 44
19 1 42 44 46
20 3 44 46 48
21 3 46 48 51
22 3 48 51 52
23 3 51 52 53
24 1 52 53 56
25 1 53 56 60
26 1 56 60 63
27 1 60 63 65
28 4 63 65 66
29 1 65 66 68
30 1 66 68 70
31 3 68 70 72
32 3 70 72 76
33 3 72 76 77
34 3 76 77 79
35 3 77 79 83
36 3 79 83 84
37 3 83 84 87
38 3 84 87 90
39 3 87 90 92
40 3 90 92 93
41 3 92 93 95
42 1 93 95 96
43 3 95 96 98
44 3 96 98 99
45 3 98 99 103
46 1 99 103 105
47 1 103 105 109
48 1 105 109 111
49 1 109 111 113
50 2 111 113 114
51 2 113 114 116
52 2 114 116 119
53 1 116 119 121
54 1 119 121 124
55 1 121 124 125
56 1 124 125 127
57 1 125 127 129
58 1 127 129 134
59 1 129 134 137
60 4 134 137 139
61 2 137 139 141
62 2 139 141 143
63 2 141 143 145
64 2 143 145 147
65 2 145 147 149
66 3 147 149 153
67 3 149 153 155
68 3 153 155 157
69 3 155 157 159
70 5 157 159 161
71 5 159 161 164
72 2 161 164 167
73 4 164 167 171
74 4 167 171 173
75 3 171 173 175
76 3 173 175 176
77 3 175 176 178
78 1 176 178 181
79 1 178 181 183
80 1 181 183 185
81 1 183 185 189
82 1 185 189 190
83 1 189 190 191
84 1 190 191 193
85 1 191 193 196
86 1 193 196 199
87 4 196 199 202
88 2 199 202 204
89 2 202 204 206
90 2 204 206 209
91 2 206 209 211
92 2 209 211 213
93 2 211 213 215
94 2 213 215 217
95 2 215 217 218
96 2 217 218 222
97 2 218 222 224
98 2 222 224 227
99 2 224 227 230
100 2 227 230 231
101 2 230 231 233
102 1 231 233 235
103 6 1 2 3
104 6 2 4 5
105 6 4 6 7
106 6 6 8 9
107 6 11 12 13
108 6 12 15 16
109 6 15 18 19
110 6 18 20 21
111 6 20 24 25
112 6 24 26 27
113 6 26 28 29
114 6 28 31 32
115 6 33 34 35
116 6 34 36 37
117 6 36 38 39
118 6 38 42 43
119 6 42 44 45
120 6 44 46 47
121 6 46 48 49
122 6 52 53 54
123 6 53 56 57
124 6 56 60 61
125 6 60 63 64
126 6 65 66 67
127 6 66 68 69
128 6 68 70 71
129 6 70 72 73
130 6 76 77 78
131 6 77 79 80
132 6 83 84 85
133 6 84 87 88
134 6 87 90 91
135 6 92 93 94
136 6 95 96 97
137 6 98 99 100
138 6 99 103 104
139 6 103 105 106
140 6 105 109 110
141 6 109 111 112
142 6 113 114 115
143 6 114 116 117
144 6 116 119 120
145 6 119 121 122
146 6 124 125 126
147 6 125 127 128
148 6 127 129 130
149 6 129 134 135
150 6 134 137 138
151 6 137 139 140
152 6 139 141 142
153 6 141 143 144
154 6 143 145 146
155 6 145 147 148
156 6 147 149 150
157 6 149 153 154
158 6 153 155 156
159 6 155 157 158
160 6 157 159 160
161 6 159 161 162
162 6 161 164 165
163 6 164 167 168
164 6 167 171 172
165 6 171 173 174
166 6 175 176 177
167 6 176 178 179
168 6 178 181 182
169 6 181 183 184
170 6 183 185 186
171 6 190 191 192
172 6 191 193 194
173 6 193 196 197
174 6 196 199 200
175 6 199 202 203
176 6 202 204 205
177 6 204 206 207
178 6 206 209 210
179 6 209 211 212
180 6 211 213 214
181 6 213 215 216
182 6 217 218 219
183 6 218 222 223
184 6 222 224 225
185 6 224 227 228
186 6 230 231 232
187 6 231 233 234
188 6 233 235 236
189 7 8 9 10
190 7 12 13 14
191 7 15 16 17
192 8 20 21 22
193 8 20 21 23
194 7 28 29 30
195 8 38 39 40
196 8 38 39 41
197 7 48 49 50
198 7 53 54 55
199 8 56 57 58
200 8 56 57 59
201 7 60 61 62
202 8 72 73 74
203 8 72 73 75
204 8 79 80 81
205 8 79 80 82
206 7 84 85 86
207 7 87 88 89
208 8 99 100 101
209 8 99 100 102
210 8 105 106 107
211 8 105 106 108
212 7 116 117 118
213 7 121 122 123
214 9 129 130 131
215 10 129 130 132
216 7 134 135 136
217 8 149 150 151
218 8 149 150 152
219 7 161 162 163
220 7 164 165 166
221 8 167 168 169
222 8 167 168 170
223 7 178 179 180
224 8 185 186 187
225 8 185 186 188
226 7 193 194 195
227 7 196 197 198
228 7 199 200 201
229 7 206 207 208
230 8 218 219 220
231 8 218 219 221
232 7 224 225 226
233 7 227 228 229

Dihedrals

1 1 4 6 8 11
2 1 6 8 11 12
3 1 8 11 12 15
4 1 11 12 15 18
5 1 12 15 18 20
6 1 15 18 20 24
7 1 18 20 24 26
8 1 20 24 26 28
9 1 111 113 114 116
10 1 113 114 116 119
11 1 137 139 141 143
12 1 139 141 143 145
13 1 141 143 145 147
14 1 143 145 147 149
15 1 159 161 164 167
16 1 199 202 204 206
17 1 202 204 206 209
18 1 204 206 209 211
19 1 206 209 211 213
20 1 209 211 213 215
21 1 211 213 215 217
22 1 213 215 217 218
23 1 215 217 218 222
24 1 217 218 222 224
25 1 218 222 224 227
26 1 222 224 227 230
27 1 224 227 230 231
28 1 227 230 231 233

Impropers

1 1 20 22 23 21
2 1 38 40 41 39
3 1 56 58 59 57
4 1 72 74 75 73
5 1 79 81 82 80
6 1 99 101 102 100
7 1 105 107 108 106
8 1 129 131 132 130
9 2 130 131 133 132
10 1 149 151 152 150
11 1 167 169 170 168
12 1 185 187 188 186
13 1 218 220 221 219

