comment

236 atoms
248 bonds
233 angles
28 dihedrals
13 impropers

17 atom types
17 bond types
10 angle types
1 dihedral types
2 improper types

-40.5 40.5 xlo xhi
-40.5 40.5 ylo yhi
-190.0 190.0 zlo zhi

Masses

1 72.0
2 72.0
3 72.0
4 72.0
5 72.0
6 72.0
7 72.0
8 72.0
9 72.0
10 45.0
11 72.0
12 72.0
13 72.0
14 45.0
15 45.0
16 72.0
17 45.0

PairIJ Coeffs

1 1 1.19503 4.699999999999999
1 2 1.3384336 4.699999999999999
1 3 1.3384336 4.699999999999999
1 4 0.956024 4.699999999999999
1 5 0.478012 4.699999999999999
1 6 0.5497137999999999 4.699999999999999
1 7 0.836521 4.699999999999999
1 8 0.478012 4.699999999999999
1 9 1.19503 4.699999999999999
1 10 0.7409186 4.699999999999999
1 11 1.3384336 4.699999999999999
1 12 1.19503 4.699999999999999
1 13 0.7409186 4.699999999999999
1 14 0.6453162 4.699999999999999
1 15 1.19503 4.699999999999999
1 16 1.19503 4.699999999999999
1 17 0.956024 4.699999999999999
2 2 1.3384336 4.699999999999999
2 3 1.3384336 4.699999999999999
2 4 1.19503 4.699999999999999
2 5 0.5497137999999999 4.699999999999999
2 6 0.6453162 4.699999999999999
2 7 0.836521 4.699999999999999
2 8 0.478012 4.699999999999999
2 9 1.19503 4.699999999999999
2 10 0.7409186 4.699999999999999
2 11 1.3384336 4.699999999999999
2 12 1.19503 4.699999999999999
2 13 0.7409186 4.699999999999999
2 14 0.6453162 4.699999999999999
2 15 1.3384336 4.699999999999999
2 16 1.3384336 4.699999999999999
2 17 1.19503 4.699999999999999
3 3 1.19503 4.699999999999999
3 4 1.19503 4.699999999999999
3 5 0.478012 4.699999999999999
3 6 0.5497137999999999 4.699999999999999
3 7 0.836521 4.699999999999999
3 8 0.478012 4.699999999999999
3 9 0.956024 4.699999999999999
3 10 0.7409186 4.699999999999999
3 11 1.3384336 4.699999999999999
3 12 1.19503 4.699999999999999
3 13 0.7409186 4.699999999999999
3 14 0.6453162 4.699999999999999
3 15 1.19503 4.699999999999999
3 16 1.19503 4.699999999999999
3 17 1.19503 4.699999999999999
4 4 0.956024 4.699999999999999
4 5 0.6453162 4.699999999999999
4 6 0.6453162 4.699999999999999
4 7 0.836521 4.699999999999999
4 8 0.6453162 4.699999999999999
4 9 1.075527 4.699999999999999
4 10 0.836521 4.699999999999999
4 11 0.956024 4.699999999999999
4 12 1.075527 4.699999999999999
4 13 0.836521 4.699999999999999
4 14 0.7409186 4.699999999999999
4 15 1.075527 4.699999999999999
4 16 1.075527 4.699999999999999
4 17 0.956024 4.699999999999999
5 5 0.836521 4.699999999999999
5 6 0.836521 4.699999999999999
5 7 0.7409186 4.699999999999999
5 8 0.836521 4.699999999999999
5 9 0.6453162 4.699999999999999
5 10 0.7409186 4.699999999999999
5 11 0.5497137999999999 4.699999999999999
5 12 0.6453162 4.699999999999999
5 13 0.7409186 4.699999999999999
5 14 0.7409186 4.699999999999999
5 15 0.7409186 4.699999999999999
5 16 0.7409186 4.699999999999999
5 17 0.6453162 4.699999999999999
6 6 0.836521 4.699999999999999
6 7 0.836521 4.699999999999999
6 8 0.836521 4.699999999999999
6 9 0.6453162 4.699999999999999
6 10 0.836521 4.699999999999999
6 11 0.6453162 4.699999999999999
6 12 0.6453162 4.699999999999999
6 13 0.836521 4.699999999999999
6 14 0.836521 4.699999999999999
6 15 0.836521 4.699999999999999
6 16 0.836521 4.699999999999999
6 17 0.6453162 4.699999999999999
7 7 0.836521 4.699999999999999
7 8 0.6453162 4.699999999999999
7 9 0.836521 4.699999999999999
7 10 0.836521 4.699999999999999
7 11 0.836521 4.699999999999999
7 12 0.836521 4.699999999999999
7 13 0.836521 4.699999999999999
7 14 0.836521 4.699999999999999
7 15 0.956024 4.699999999999999
7 16 0.956024 4.699999999999999
7 17 0.836521 4.699999999999999
8 8 0.836521 4.699999999999999
8 9 0.6453162 4.699999999999999
8 10 0.7409186 4.699999999999999
8 11 0.478012 4.699999999999999
8 12 0.6453162 4.699999999999999
8 13 0.7409186 4.699999999999999
8 14 0.7409186 4.699999999999999
8 15 0.6453162 4.699999999999999
8 16 0.6453162 4.699999999999999
8 17 0.6453162 4.699999999999999
9 9 0.956024 4.699999999999999
9 10 0.836521 4.699999999999999
9 11 0.956024 4.699999999999999
9 12 1.075527 4.699999999999999
9 13 0.836521 4.699999999999999
9 14 0.7409186 4.699999999999999
9 15 1.075527 4.699999999999999
9 16 1.075527 4.699999999999999
9 17 1.075527 4.699999999999999
10 10 0.62739075 4.3
10 11 0.7409186 4.699999999999999
10 12 0.836521 4.699999999999999
10 13 0.836521 4.699999999999999
10 14 0.62739075 4.3
10 15 0.62739075 4.3
10 16 0.836521 4.699999999999999
10 17 0.62739075 4.3
11 11 1.19503 4.699999999999999
11 12 0.956024 4.699999999999999
11 13 0.7409186 4.699999999999999
11 14 0.6453162 4.699999999999999
11 15 1.075527 4.699999999999999
11 16 1.075527 4.699999999999999
11 17 0.956024 4.699999999999999
12 12 1.075527 4.699999999999999
12 13 0.836521 4.699999999999999
12 14 0.7409186 4.699999999999999
12 15 1.075527 4.699999999999999
12 16 1.075527 4.699999999999999
12 17 1.075527 4.699999999999999
13 13 0.836521 4.699999999999999
13 14 0.836521 4.699999999999999
13 15 0.836521 4.699999999999999
13 16 0.836521 4.699999999999999
13 17 0.836521 4.699999999999999
14 14 0.62739075 4.3
14 15 0.62739075 4.3
14 16 0.836521 4.699999999999999
14 17 0.5556889500000001 4.3
15 15 0.80664525 4.3
15 16 1.075527 4.699999999999999
15 17 0.80664525 4.3
16 16 1.075527 4.699999999999999
16 17 1.075527 4.699999999999999
17 17 0.7170179999999999 4.3

Bond Coeffs

1 1.4937875 3.5
2 8.962725 3.2
3 5.97515 4.0
4 5.97515 3.3000000000000003
5 5.97515 2.8000000000000003
6 8.962725 3.1
7 8.962725 3.0
8 5.97515 3.2
9 8.962725 3.3000000000000003
10 5.97515 3.4000000000000004
11 5.97515 3.0
12 2.987575 4.0
13 11.9503 3.3000000000000003
14 11.9503 3.1
15 11.9503 2.6500000000000004
16 11.9503 2.7
17 11.9503 2.6

Angle Coeffs

1 2.39006 127
2 83.6521 96
3 2.39006 100
4 2.39006 130
5 11.9503 98
6 2.987575 100
7 2.987575 180
8 5.97515 150
9 5.97515 210
10 5.97515 90

Dihedral Coeffs

1 95.6024 1 -120 0

Improper Coeffs

1 5.97515 0
2 23.9006 0

Atoms

1 1 1 1.0000 1.2549999 -0.027 -48.818
2 1 2 0.0000 0.0282955 0.17699899 -51.2261
3 1 3 -1.0000 -1.4258599 -1.07148 -53.5124
4 1 4 0.0000 1.8040501 2.10323 -54.2972
5 1 5 0.0000 2.63833 1.0367 -56.6069
6 1 4 0.0000 1.6119499 5.5637503 -54.697998
7 1 3 -1.0000 -2.3896198 6.1835403 -55.9166
8 1 4 0.0000 4.34082 6.11624 -56.609997
9 1 6 0.0000 7.2436705 4.61597 -56.289703
10 1 1 1.0000 8.19683 1.6006701 -56.494297
11 1 4 0.0000 3.57263 5.22263 -59.675797
12 1 7 0.0000 1.5216801 7.51968 -60.518898
13 1 6 0.0000 -1.38963 6.9782696 -60.8222
14 1 1 1.0000 -4.3025403 6.42377 -60.4858
15 1 7 0.0000 3.5144901 9.89768 -59.9313
16 1 6 0.0000 2.1066 11.332901 -57.6911
17 1 1 1.0000 0.122542 10.0061 -55.643
18 1 7 0.0000 6.00507 9.39247 -61.9059
19 1 8 0.0000 8.41362 7.8778305 -60.746696
20 1 9 0.0000 4.59959 9.91035 -64.7672
21 1 10 0.0000 5.5411797 9.57631 -67.6147
22 1 10 0.0000 5.1649 9.16948 -70.1056
23 1 10 0.0000 7.63274 8.99952 -69.015594
24 1 9 0.0000 3.4934301 12.8784 -63.9438
25 1 5 0.0000 1.73582 14.2335 -64.224304
26 1 9 0.0000 6.33846 13.9999 -63.0237
27 1 11 0.0000 4.73603 17.4046 -64.7101
28 1 9 0.0000 7.99262 13.4478 -65.8773
29 1 6 0.0000 10.0104 10.8523 -65.0358
30 1 1 1.0000 11.480599 8.83026 -65.2875
31 1 12 0.0000 6.78169 14.1009 -69.038704
32 1 13 0.0000 8.927 13.6905 -71.391304
33 1 7 0.0000 4.38128 14.264801 -69.8518
34 1 12 0.0000 1.62713 12.4159 -68.7403
35 1 11 0.0000 -0.65032 16.278301 -68.4587
36 1 12 0.0000 -0.268995 12.0884 -71.4469
37 1 13 0.0000 -1.08498 15.1029005 -71.3704
38 1 2 0.0000 -0.669196 8.74884 -71.2011
39 1 14 0.0000 1.6495299 7.59008 -72.7927
40 1 15 0.0000 3.1748 5.52731 -72.5067
41 1 15 0.0000 4.03609 7.6288996 -73.941895
42 1 2 0.0000 -3.71719 7.06795 -71.8983
43 1 16 0.0000 -4.64471 8.04046 -74.0817
44 1 2 0.0000 -5.2118497 7.30397 -68.6365
45 1 5 0.0000 -3.61975 5.76332 -67.399506
46 1 2 0.0000 -7.49901 6.66986 -65.5586
47 1 3 -1.0000 -5.6264105 9.51911 -63.450096
48 1 12 0.0000 -11.4468 3.8796601 -64.5013
49 1 6 0.0000 -12.1093 2.39622 -61.535603
50 1 1 1.0000 -11.6276 1.68927 -58.645702
51 1 12 0.0000 -12.5537 6.05651 -67.867096
52 1 2 0.0000 -9.95139 7.4684296 -67.431305
53 1 2 0.0000 -10.9789 10.611 -66.2773
54 1 6 0.0000 -10.7664 9.49454 -63.2345
55 1 1 1.0000 -9.2833 7.92407 -61.2814
56 1 2 0.0000 -8.80173 11.6615 -70.0254
57 1 14 0.0000 -10.2672 9.19209 -71.5661
58 1 15 0.0000 -9.75031 7.00704 -72.5996
59 1 15 0.0000 -12.255401 7.93848 -72.761
60 1 2 0.0000 -5.15627 12.294199 -71.970604
61 1 6 0.0000 -4.22114 12.2617 -68.9211
62 1 1 1.0000 -2.80963 11.620501 -66.5437
63 1 2 0.0000 -3.49227 12.9292 -75.1065
64 1 16 0.0000 -3.0750098 15.146 -76.7364
65 1 2 0.0000 -0.421568 10.738501 -75.870804
66 1 11 0.0000 0.26057598 7.9387097 -77.143105
67 1 6 0.0000 1.69528 6.4578004 -79.3451
68 1 2 0.0000 -1.1168699 4.8070297 -75.962204
69 1 2 0.0000 -4.1489897 4.04435 -76.9325
70 1 2 0.0000 -1.71951 2.2740002 -72.9651
71 1 8 0.0000 -0.169162 3.3720698 -70.427
72 1 12 0.0000 -6.04214 2.48335 -74.2708
73 1 14 0.0000 -7.23109 3.23784 -71.6265
74 1 15 0.0000 -9.58474 2.98669 -70.2255
75 1 15 0.0000 -7.3335896 2.8851 -68.934395
76 1 12 0.0000 -7.68815 -1.01376 -73.5179
77 1 2 0.0000 -5.65135 -2.26562 -70.9463
78 1 8 0.0000 -4.27428 -0.53447497 -68.628204
79 1 12 0.0000 -5.9282103 -5.16667 -69.9248
80 1 10 0.0000 -4.70913 -5.9680405 -67.3737
81 1 10 0.0000 -2.9211102 -5.9927897 -65.4002
82 1 10 0.0000 -5.03899 -7.57787 -64.8781
83 1 12 0.0000 -5.90035 -8.49404 -72.7156
84 1 2 0.0000 -5.3125296 -6.55868 -75.621704
85 1 7 0.0000 -4.22733 -4.12226 -74.9997
86 1 1 1.0000 -3.1920002 -1.6547 -75.425
87 1 2 0.0000 -3.46406 -7.3643703 -79.1434
88 1 6 0.0000 -0.65683097 -9.30705 -80.0079
89 1 1 1.0000 0.247178 -7.5424404 -82.7296
90 1 12 0.0000 -1.94517 -4.1484203 -79.955505
91 1 16 0.0000 0.253771 -3.75388 -78.7028
92 1 12 0.0000 -4.52766 -3.2769701 -82.2295
93 1 2 0.0000 -6.41214 -0.67107296 -79.4592
94 1 11 0.0000 -8.5862 -3.65595 -77.775894
95 1 11 0.0000 -8.419169 1.31348 -79.6905
96 1 7 0.0000 -10.0674 4.08045 -77.1019
97 1 6 0.0000 -11.7483 2.8845 -75.113205
98 1 12 0.0000 -8.28826 6.62097 -77.5093
99 1 2 0.0000 -6.48241 5.4023404 -81.016396
100 1 10 0.0000 -6.82685 7.9610996 -82.6758
101 1 10 0.0000 -5.24705 8.69722 -84.5086
102 1 10 0.0000 -6.99884 10.500099 -83.4423
103 1 2 0.0000 -3.9067302 4.01098 -82.6542
104 1 16 0.0000 -4.88512 1.9967499 -84.1059
105 1 2 0.0000 -1.39325 5.2046103 -82.7324
106 1 14 0.0000 -2.5050302 8.22003 -81.338394
107 1 14 0.0000 -4.57093 9.74633 -79.423996
108 1 15 0.0000 -2.9685597 10.9027 -81.4602
109 1 2 0.0000 0.110808 4.88627 -86.031906
110 1 16 0.0000 -1.65227 6.1008196 -87.5358
111 1 4 0.0000 1.9230499 2.23463 -85.7774
112 1 3 -1.0000 2.33946 1.39288 -88.9243
113 1 7 0.0000 2.1219702 2.02442 -82.6494
114 1 12 0.0000 -0.58072996 0.447821 -82.0569
115 1 2 0.0000 -0.688613 0.732863 -79.057205
116 1 12 0.0000 -0.0751784 -1.91396 -84.09331
117 1 6 0.0000 -2.1475 -1.3050901 -86.537506
118 1 1 1.0000 -1.9574399 0.603493 -88.492096
119 1 9 0.0000 2.8732202 -3.0283298 -83.34
120 1 2 0.0000 3.58686 -3.64876 -86.5575
121 1 2 0.0000 4.99613 -4.93145 -81.20071
122 1 6 0.0000 8.35708 -4.82937 -80.9155
123 1 1 1.0000 10.880899 -5.2442303 -78.9245
124 1 2 0.0000 3.82627 -7.44389 -79.5495
125 1 2 0.0000 2.34787 -7.53917 -76.6715
126 1 8 0.0000 2.8815799 -10.5576 -76.1316
127 1 2 0.0000 -0.41469997 -7.5450997 -74.7395
128 1 16 0.0000 -1.43683 -9.98034 -75.049904
129 1 2 0.0000 -1.11585 -7.85882 -70.4223
130 1 14 0.0000 -1.0607101 -5.0576596 -70.7099
131 1 17 0.0000 -0.215549 -2.68395 -71.3489
132 1 10 0.0000 0.465284 -4.68711 -73.1569
133 1 10 0.0000 1.3371199 -2.29224 -73.4941
134 1 2 0.0000 0.347412 -8.83685 -66.7724
135 1 6 0.0000 2.6345599 -11.785001 -66.3433
136 1 1 1.0000 4.75328 -12.0535 -64.3406
137 1 4 0.0000 2.4400802 -6.53373 -66.3082
138 1 3 -1.0000 5.62458 -7.68275 -62.943703
139 1 4 0.0000 4.89943 -7.4898796 -67.7909
140 1 3 -1.0000 5.85856 -7.71848 -63.467003
141 1 4 0.0000 4.1223297 -6.2555304 -70.6706
142 1 16 0.0000 3.99926 -8.32861 -72.1653
143 1 12 0.0000 4.47143 -3.16405 -69.4638
144 1 8 0.0000 3.8076901 0.150529 -69.9145
145 1 9 0.0000 7.7384195 -3.5405202 -68.5999
146 1 13 0.0000 9.92041 -6.49841 -66.581894
147 1 9 0.0000 8.6688795 -3.74013 -71.7167
148 1 3 -1.0000 12.0220995 -3.9796 -74.4144
149 1 9 0.0000 7.5257998 -0.760018 -72.5672
150 1 14 0.0000 5.0567 0.797455 -74.6134
151 1 14 0.0000 4.48133 2.71402 -76.198204
152 1 15 0.0000 2.58934 1.7883099 -75.0628
153 1 12 0.0000 8.74924 1.4200499 -70.6361
154 1 8 0.0000 7.11361 3.6957 -69.7882
155 1 12 0.0000 11.9565 1.16399 -72.262
156 1 3 -1.0000 15.6285 0.64415205 -70.7548
157 1 2 0.0000 12.5747 3.50773 -74.4035
158 1 2 0.0000 15.623501 3.68183 -74.415695
159 1 7 0.0000 9.71197 3.52029 -76.126495
160 1 6 0.0000 8.08877 4.8865 -74.2995
161 1 12 0.0000 11.261999 3.10367 -78.8355
162 1 6 0.0000 13.341499 6.0823703 -78.4141
163 1 1 1.0000 12.3462 8.33984 -77.1307
164 1 12 0.0000 11.5799 -0.110847 -78.2352
165 1 6 0.0000 14.7199 -0.055073604 -77.9393
166 1 1 1.0000 15.7362995 -1.03108 -75.128494
167 1 12 0.0000 8.56406 -0.76408803 -77.733
168 1 14 0.0000 7.3915796 -3.5513601 -76.3815
169 1 14 0.0000 5.05846 -4.05352 -75.3062
170 1 15 0.0000 7.02591 -6.04883 -75.4564
171 1 2 0.0000 6.29132 0.459849 -80.1111
172 1 8 0.0000 3.85176 -0.90867305 -79.0477
173 1 7 0.0000 6.95919 0.483457 -83.179504
174 1 6 0.0000 8.45029 -1.42994 -84.792496
175 1 12 0.0000 8.779699 3.4390597 -83.1495
176 1 2 0.0000 7.1717205 5.38247 -81.028
177 1 16 0.0000 6.4946995 6.2414303 -78.5499
178 1 2 0.0000 4.72255 6.26627 -83.072395
179 1 6 0.0000 6.2790003 6.0439005 -85.771706
180 1 1 1.0000 4.9896297 5.06346 -88.2057
181 1 2 0.0000 2.8920002 8.74897 -83.1147
182 1 13 0.0000 2.22441 9.51632 -86.9946
183 1 2 0.0000 2.8303 10.7977 -80.7018
184 1 8 0.0000 1.30381 13.6171 -81.087105
185 1 2 0.0000 4.36674 10.9848995 -78.204796
186 1 10 0.0000 3.56168 13.3523 -76.1764
187 1 10 0.0000 3.9965298 15.997601 -75.592896
188 1 10 0.0000 1.6245501 15.4004 -75.454895
189 1 11 0.0000 7.55358 11.051101 -75.9825
190 1 2 0.0000 8.7243805 9.32874 -74.2196
191 1 2 0.0000 11.118 8.16854 -71.895096
192 1 8 0.0000 12.448 10.6056 -69.9787
193 1 2 0.0000 12.3594 4.92667 -68.782
194 1 6 0.0000 15.1895 5.1902905 -69.1129
195 1 1 1.0000 17.3511 4.2913 -68.3726
196 1 2 0.0000 15.650999 1.00132 -65.9517
197 1 6 0.0000 18.0728 2.20423 -64.0217
198 1 1 1.0000 17.711 3.5198 -61.875603
199 1 4 0.0000 14.509701 -0.968011 -63.432297
200 1 6 0.0000 11.971901 -3.6070201 -62.3389
201 1 1 1.0000 8.91219 -4.58787 -62.0178
202 1 4 0.0000 13.112499 1.05034 -61.539898
203 1 16 0.0000 11.835001 0.0979855 -59.439903
204 1 4 0.0000 12.108999 3.0608902 -63.660797
205 1 3 -1.0000 15.1376 6.03945 -64.5746
206 1 4 0.0000 10.575 1.1195 -65.584
207 1 7 0.0000 11.6371 -0.994075 -67.5408
208 1 1 1.0000 12.986401 -3.25877 -69.8322
209 1 7 0.0000 8.76784 -0.418123 -63.5424
210 1 3 -1.0000 6.75973 -1.48566 -59.573
211 1 7 0.0000 7.08068 1.99083 -62.459
212 1 3 -1.0000 6.5302997 -0.575822 -59.7846
213 1 7 0.0000 5.59345 2.6955101 -65.3238
214 1 8 0.0000 7.23906 5.67037 -65.419
215 1 7 0.0000 4.01835 -0.22034301 -64.9471
216 1 8 0.0000 5.0592704 -2.6845 -64.4772
217 1 13 0.0000 2.50781 0.88427997 -62.269203
218 1 7 0.0000 0.541861 3.062 -63.789803
219 1 14 0.0000 1.75893 5.65376 -65.4819
220 1 14 0.0000 2.27557 6.70742 -67.8093
221 1 15 0.0000 0.475792 7.75072 -66.4368
222 1 7 0.0000 -0.96689594 0.522927 -65.5414
223 1 8 0.0000 0.388844 -2.5384 -66.6892
224 1 7 0.0000 -1.94974 -0.95289 -63.193798
225 1 6 0.0000 0.24663 -3.55169 -61.6573
226 1 1 1.0000 3.30192 -4.43523 -60.848198
227 1 9 0.0000 -3.4161499 1.57753 -61.8844
228 1 6 0.0000 -3.0245101 2.25718 -58.709503
229 1 1 1.0000 -4.62716 2.15709 -56.2682
230 1 7 0.0000 -5.25729 2.39974 -64.4472
231 1 9 0.0000 -6.86224 -0.435844 -64.3924
232 1 16 0.0000 -8.82264 -1.05048 -66.342804
233 1 9 0.0000 -8.01655 -0.106831 -61.698498
234 1 2 0.0000 -5.77178 -2.05764 -59.454597
235 1 3 -1.0000 -7.46193 2.8643 -60.324
236 1 3 -1.0000 -8.3887 4.92515 -57.5815

Bonds

1 1 1 2
2 1 31 33
3 1 33 34
4 1 34 36
5 1 36 38
6 1 38 42
7 1 42 44
8 1 44 46
9 1 46 48
10 1 48 51
11 1 51 52
12 1 52 53
13 1 53 56
14 1 56 60
15 1 60 63
16 1 63 65
17 1 65 66
18 1 66 68
19 1 68 70
20 1 70 72
21 1 72 76
22 1 76 77
23 1 77 79
24 1 79 83
25 1 83 84
26 1 84 87
27 1 87 90
28 1 90 92
29 1 92 93
30 1 93 95
31 1 95 96
32 1 96 98
33 1 98 99
34 1 99 103
35 1 103 105
36 1 105 109
37 1 121 124
38 1 124 125
39 1 125 127
40 1 127 129
41 1 129 134
42 1 153 155
43 1 155 157
44 1 171 173
45 1 173 175
46 1 175 176
47 1 176 178
48 1 178 181
49 1 181 183
50 1 183 185
51 1 185 189
52 1 189 190
53 1 190 191
54 1 191 193
55 1 193 196
56 2 2 3
57 3 6 7
58 4 8 9
59 5 9 10
60 4 12 13
61 5 13 14
62 4 15 16
63 5 16 17
64 6 20 21
65 3 26 27
66 4 28 29
67 5 29 30
68 6 31 32
69 3 34 35
70 6 36 37
71 2 38 39
72 3 46 47
73 4 48 49
74 5 49 50
75 4 53 54
76 5 54 55
77 2 56 57
78 4 60 61
79 5 61 62
80 7 66 67
81 8 68 69
82 9 70 71
83 2 72 73
84 9 77 78
85 6 79 80
86 4 84 85
87 10 85 86
88 4 87 88
89 5 88 89
90 3 93 94
91 7 96 97
92 6 99 100
93 8 105 106
94 2 111 112
95 8 114 115
96 4 116 117
97 5 117 118
98 8 119 120
99 4 121 122
100 5 122 123
101 11 129 130
102 4 134 135
103 5 135 136
104 3 137 138
105 3 139 140
106 9 143 144
107 12 145 146
108 3 147 148
109 8 149 150
110 9 153 154
111 3 155 156
112 8 157 158
113 7 159 160
114 4 161 162
115 5 162 163
116 4 164 165
117 5 165 166
118 8 167 168
119 7 173 174
120 4 178 179
121 5 179 180
122 12 181 182
123 6 185 186
124 4 193 194
125 5 194 195
126 4 196 197
127 5 197 198
128 4 199 200
129 5 200 201
130 3 204 205
131 4 206 207
132 10 207 208
133 3 209 210
134 2 211 212
135 9 213 214
136 8 218 219
137 9 222 223
138 4 224 225
139 5 225 226
140 4 227 228
141 5 228 229
142 8 233 234
143 3 235 236
144 13 2 4
145 14 4 6
146 14 6 8
147 14 8 11
148 14 11 12
149 14 12 15
150 14 15 18
151 14 18 20
152 14 20 24
153 14 24 26
154 14 26 28
155 13 28 31
156 13 109 111
157 14 111 113
158 14 113 114
159 14 114 116
160 14 116 119
161 13 119 121
162 13 134 137
163 14 137 139
164 14 139 141
165 14 141 143
166 14 143 145
167 14 145 147
168 14 147 149
169 13 149 153
170 13 157 159
171 14 159 161
172 14 161 164
173 14 164 167
174 13 167 171
175 13 196 199
176 14 199 202
177 14 202 204
178 14 204 206
179 14 206 209
180 14 209 211
181 14 211 213
182 14 213 215
183 14 215 217
184 14 217 218
185 14 218 222
186 14 222 224
187 14 224 227
188 14 227 230
189 14 230 231
190 14 231 233
191 13 233 235
192 15 4 5
193 14 18 19
194 16 21 22
195 16 21 23
196 16 22 23
197 15 24 25
198 16 39 40
199 16 39 41
200 16 40 41
201 17 42 43
202 15 44 45
203 16 57 58
204 16 57 59
205 16 58 59
206 17 63 64
207 16 73 74
208 16 73 75
209 16 74 75
210 16 80 81
211 16 80 82
212 16 81 82
213 17 90 91
214 16 100 101
215 16 100 102
216 16 101 102
217 17 103 104
218 16 106 107
219 16 106 108
220 16 107 108
221 17 109 110
222 14 125 126
223 17 127 128
224 16 130 131
225 16 130 132
226 16 131 132
227 16 131 133
228 16 132 133
229 17 141 142
230 16 150 151
231 16 150 152
232 16 151 152
233 16 168 169
234 16 168 170
235 16 169 170
236 14 171 172
237 17 176 177
238 14 183 184
239 16 186 187
240 16 186 188
241 16 187 188
242 14 191 192
243 17 202 203
244 14 215 216
245 16 219 220
246 16 219 221
247 16 220 221
248 17 231 232

Angles

1 1 1 2 4
2 1 2 4 6
3 2 4 6 8
4 2 6 8 11
5 2 8 11 12
6 2 11 12 15
7 2 12 15 18
8 2 15 18 20
9 2 18 20 24
10 2 20 24 26
11 2 24 26 28
12 3 26 28 31
13 3 28 31 33
14 3 31 33 34
15 3 33 34 36
16 3 34 36 38
17 3 36 38 42
18 1 38 42 44
19 1 42 44 46
20 3 44 46 48
21 3 46 48 51
22 3 48 51 52
23 3 51 52 53
24 1 52 53 56
25 1 53 56 60
26 1 56 60 63
27 1 60 63 65
28 4 63 65 66
29 1 65 66 68
30 1 66 68 70
31 3 68 70 72
32 3 70 72 76
33 3 72 76 77
34 3 76 77 79
35 3 77 79 83
36 3 79 83 84
37 3 83 84 87
38 3 84 87 90
39 3 87 90 92
40 3 90 92 93
41 3 92 93 95
42 1 93 95 96
43 3 95 96 98
44 3 96 98 99
45 3 98 99 103
46 1 99 103 105
47 1 103 105 109
48 1 105 109 111
49 1 109 111 113
50 2 111 113 114
51 2 113 114 116
52 2 114 116 119
53 1 116 119 121
54 1 119 121 124
55 1 121 124 125
56 1 124 125 127
57 1 125 127 129
58 1 127 129 134
59 1 129 134 137
60 4 134 137 139
61 2 137 139 141
62 2 139 141 143
63 2 141 143 145
64 2 143 145 147
65 2 145 147 149
66 3 147 149 153
67 3 149 153 155
68 3 153 155 157
69 3 155 157 159
70 5 157 159 161
71 5 159 161 164
72 2 161 164 167
73 4 164 167 171
74 4 167 171 173
75 3 171 173 175
76 3 173 175 176
77 3 175 176 178
78 1 176 178 181
79 1 178 181 183
80 1 181 183 185
81 1 183 185 189
82 1 185 189 190
83 1 189 190 191
84 1 190 191 193
85 1 191 193 196
86 1 193 196 199
87 4 196 199 202
88 2 199 202 204
89 2 202 204 206
90 2 204 206 209
91 2 206 209 211
92 2 209 211 213
93 2 211 213 215
94 2 213 215 217
95 2 215 217 218
96 2 217 218 222
97 2 218 222 224
98 2 222 224 227
99 2 224 227 230
100 2 227 230 231
101 2 230 231 233
102 1 231 233 235
103 6 1 2 3
104 6 2 4 5
105 6 4 6 7
106 6 6 8 9
107 6 11 12 13
108 6 12 15 16
109 6 15 18 19
110 6 18 20 21
111 6 20 24 25
112 6 24 26 27
113 6 26 28 29
114 6 28 31 32
115 6 33 34 35
116 6 34 36 37
117 6 36 38 39
118 6 38 42 43
119 6 42 44 45
120 6 44 46 47
121 6 46 48 49
122 6 52 53 54
123 6 53 56 57
124 6 56 60 61
125 6 60 63 64
126 6 65 66 67
127 6 66 68 69
128 6 68 70 71
129 6 70 72 73
130 6 76 77 78
131 6 77 79 80
132 6 83 84 85
133 6 84 87 88
134 6 87 90 91
135 6 92 93 94
136 6 95 96 97
137 6 98 99 100
138 6 99 103 104
139 6 103 105 106
140 6 105 109 110
141 6 109 111 112
142 6 113 114 115
143 6 114 116 117
144 6 116 119 120
145 6 119 121 122
146 6 124 125 126
147 6 125 127 128
148 6 127 129 130
149 6 129 134 135
150 6 134 137 138
151 6 137 139 140
152 6 139 141 142
153 6 141 143 144
154 6 143 145 146
155 6 145 147 148
156 6 147 149 150
157 6 149 153 154
158 6 153 155 156
159 6 155 157 158
160 6 157 159 160
161 6 159 161 162
162 6 161 164 165
163 6 164 167 168
164 6 167 171 172
165 6 171 173 174
166 6 175 176 177
167 6 176 178 179
168 6 178 181 182
169 6 181 183 184
170 6 183 185 186
171 6 190 191 192
172 6 191 193 194
173 6 193 196 197
174 6 196 199 200
175 6 199 202 203
176 6 202 204 205
177 6 204 206 207
178 6 206 209 210
179 6 209 211 212
180 6 211 213 214
181 6 213 215 216
182 6 217 218 219
183 6 218 222 223
184 6 222 224 225
185 6 224 227 228
186 6 230 231 232
187 6 231 233 234
188 6 233 235 236
189 7 8 9 10
190 7 12 13 14
191 7 15 16 17
192 8 20 21 22
193 8 20 21 23
194 7 28 29 30
195 8 38 39 40
196 8 38 39 41
197 7 48 49 50
198 7 53 54 55
199 8 56 57 58
200 8 56 57 59
201 7 60 61 62
202 8 72 73 74
203 8 72 73 75
204 8 79 80 81
205 8 79 80 82
206 7 84 85 86
207 7 87 88 89
208 8 99 100 101
209 8 99 100 102
210 8 105 106 107
211 8 105 106 108
212 7 116 117 118
213 7 121 122 123
214 9 129 130 131
215 10 129 130 132
216 7 134 135 136
217 8 149 150 151
218 8 149 150 152
219 7 161 162 163
220 7 164 165 166
221 8 167 168 169
222 8 167 168 170
223 7 178 179 180
224 8 185 186 187
225 8 185 186 188
226 7 193 194 195
227 7 196 197 198
228 7 199 200 201
229 7 206 207 208
230 8 218 219 220
231 8 218 219 221
232 7 224 225 226
233 7 227 228 229

Dihedrals

1 1 4 6 8 11
2 1 6 8 11 12
3 1 8 11 12 15
4 1 11 12 15 18
5 1 12 15 18 20
6 1 15 18 20 24
7 1 18 20 24 26
8 1 20 24 26 28
9 1 111 113 114 116
10 1 113 114 116 119
11 1 137 139 141 143
12 1 139 141 143 145
13 1 141 143 145 147
14 1 143 145 147 149
15 1 159 161 164 167
16 1 199 202 204 206
17 1 202 204 206 209
18 1 204 206 209 211
19 1 206 209 211 213
20 1 209 211 213 215
21 1 211 213 215 217
22 1 213 215 217 218
23 1 215 217 218 222
24 1 217 218 222 224
25 1 218 222 224 227
26 1 222 224 227 230
27 1 224 227 230 231
28 1 227 230 231 233

Impropers

1 1 20 22 23 21
2 1 38 40 41 39
3 1 56 58 59 57
4 1 72 74 75 73
5 1 79 81 82 80
6 1 99 101 102 100
7 1 105 107 108 106
8 1 129 131 132 130
9 2 130 131 133 132
10 1 149 151 152 150
11 1 167 169 170 168
12 1 185 187 188 186
13 1 218 220 221 219

