comment

236 atoms
248 bonds
233 angles
28 dihedrals
13 impropers

17 atom types
17 bond types
10 angle types
1 dihedral types
2 improper types

-40.5 40.5 xlo xhi
-40.5 40.5 ylo yhi
-190.0 190.0 zlo zhi

Masses

1 72.0
2 72.0
3 72.0
4 72.0
5 72.0
6 72.0
7 72.0
8 72.0
9 72.0
10 45.0
11 72.0
12 72.0
13 72.0
14 45.0
15 45.0
16 72.0
17 45.0

PairIJ Coeffs

1 1 1.19503 4.699999999999999
1 2 1.3384336 4.699999999999999
1 3 1.3384336 4.699999999999999
1 4 0.956024 4.699999999999999
1 5 0.478012 4.699999999999999
1 6 0.5497137999999999 4.699999999999999
1 7 0.836521 4.699999999999999
1 8 0.478012 4.699999999999999
1 9 1.19503 4.699999999999999
1 10 0.7409186 4.699999999999999
1 11 1.3384336 4.699999999999999
1 12 1.19503 4.699999999999999
1 13 0.7409186 4.699999999999999
1 14 0.6453162 4.699999999999999
1 15 1.19503 4.699999999999999
1 16 1.19503 4.699999999999999
1 17 0.956024 4.699999999999999
2 2 1.3384336 4.699999999999999
2 3 1.3384336 4.699999999999999
2 4 1.19503 4.699999999999999
2 5 0.5497137999999999 4.699999999999999
2 6 0.6453162 4.699999999999999
2 7 0.836521 4.699999999999999
2 8 0.478012 4.699999999999999
2 9 1.19503 4.699999999999999
2 10 0.7409186 4.699999999999999
2 11 1.3384336 4.699999999999999
2 12 1.19503 4.699999999999999
2 13 0.7409186 4.699999999999999
2 14 0.6453162 4.699999999999999
2 15 1.3384336 4.699999999999999
2 16 1.3384336 4.699999999999999
2 17 1.19503 4.699999999999999
3 3 1.19503 4.699999999999999
3 4 1.19503 4.699999999999999
3 5 0.478012 4.699999999999999
3 6 0.5497137999999999 4.699999999999999
3 7 0.836521 4.699999999999999
3 8 0.478012 4.699999999999999
3 9 0.956024 4.699999999999999
3 10 0.7409186 4.699999999999999
3 11 1.3384336 4.699999999999999
3 12 1.19503 4.699999999999999
3 13 0.7409186 4.699999999999999
3 14 0.6453162 4.699999999999999
3 15 1.19503 4.699999999999999
3 16 1.19503 4.699999999999999
3 17 1.19503 4.699999999999999
4 4 0.956024 4.699999999999999
4 5 0.6453162 4.699999999999999
4 6 0.6453162 4.699999999999999
4 7 0.836521 4.699999999999999
4 8 0.6453162 4.699999999999999
4 9 1.075527 4.699999999999999
4 10 0.836521 4.699999999999999
4 11 0.956024 4.699999999999999
4 12 1.075527 4.699999999999999
4 13 0.836521 4.699999999999999
4 14 0.7409186 4.699999999999999
4 15 1.075527 4.699999999999999
4 16 1.075527 4.699999999999999
4 17 0.956024 4.699999999999999
5 5 0.836521 4.699999999999999
5 6 0.836521 4.699999999999999
5 7 0.7409186 4.699999999999999
5 8 0.836521 4.699999999999999
5 9 0.6453162 4.699999999999999
5 10 0.7409186 4.699999999999999
5 11 0.5497137999999999 4.699999999999999
5 12 0.6453162 4.699999999999999
5 13 0.7409186 4.699999999999999
5 14 0.7409186 4.699999999999999
5 15 0.7409186 4.699999999999999
5 16 0.7409186 4.699999999999999
5 17 0.6453162 4.699999999999999
6 6 0.836521 4.699999999999999
6 7 0.836521 4.699999999999999
6 8 0.836521 4.699999999999999
6 9 0.6453162 4.699999999999999
6 10 0.836521 4.699999999999999
6 11 0.6453162 4.699999999999999
6 12 0.6453162 4.699999999999999
6 13 0.836521 4.699999999999999
6 14 0.836521 4.699999999999999
6 15 0.836521 4.699999999999999
6 16 0.836521 4.699999999999999
6 17 0.6453162 4.699999999999999
7 7 0.836521 4.699999999999999
7 8 0.6453162 4.699999999999999
7 9 0.836521 4.699999999999999
7 10 0.836521 4.699999999999999
7 11 0.836521 4.699999999999999
7 12 0.836521 4.699999999999999
7 13 0.836521 4.699999999999999
7 14 0.836521 4.699999999999999
7 15 0.956024 4.699999999999999
7 16 0.956024 4.699999999999999
7 17 0.836521 4.699999999999999
8 8 0.836521 4.699999999999999
8 9 0.6453162 4.699999999999999
8 10 0.7409186 4.699999999999999
8 11 0.478012 4.699999999999999
8 12 0.6453162 4.699999999999999
8 13 0.7409186 4.699999999999999
8 14 0.7409186 4.699999999999999
8 15 0.6453162 4.699999999999999
8 16 0.6453162 4.699999999999999
8 17 0.6453162 4.699999999999999
9 9 0.956024 4.699999999999999
9 10 0.836521 4.699999999999999
9 11 0.956024 4.699999999999999
9 12 1.075527 4.699999999999999
9 13 0.836521 4.699999999999999
9 14 0.7409186 4.699999999999999
9 15 1.075527 4.699999999999999
9 16 1.075527 4.699999999999999
9 17 1.075527 4.699999999999999
10 10 0.62739075 4.3
10 11 0.7409186 4.699999999999999
10 12 0.836521 4.699999999999999
10 13 0.836521 4.699999999999999
10 14 0.62739075 4.3
10 15 0.62739075 4.3
10 16 0.836521 4.699999999999999
10 17 0.62739075 4.3
11 11 1.19503 4.699999999999999
11 12 0.956024 4.699999999999999
11 13 0.7409186 4.699999999999999
11 14 0.6453162 4.699999999999999
11 15 1.075527 4.699999999999999
11 16 1.075527 4.699999999999999
11 17 0.956024 4.699999999999999
12 12 1.075527 4.699999999999999
12 13 0.836521 4.699999999999999
12 14 0.7409186 4.699999999999999
12 15 1.075527 4.699999999999999
12 16 1.075527 4.699999999999999
12 17 1.075527 4.699999999999999
13 13 0.836521 4.699999999999999
13 14 0.836521 4.699999999999999
13 15 0.836521 4.699999999999999
13 16 0.836521 4.699999999999999
13 17 0.836521 4.699999999999999
14 14 0.62739075 4.3
14 15 0.62739075 4.3
14 16 0.836521 4.699999999999999
14 17 0.5556889500000001 4.3
15 15 0.80664525 4.3
15 16 1.075527 4.699999999999999
15 17 0.80664525 4.3
16 16 1.075527 4.699999999999999
16 17 1.075527 4.699999999999999
17 17 0.7170179999999999 4.3

Bond Coeffs

1 1.4937875 3.5
2 8.962725 3.2
3 5.97515 4.0
4 5.97515 3.3000000000000003
5 5.97515 2.8000000000000003
6 8.962725 3.1
7 8.962725 3.0
8 5.97515 3.2
9 8.962725 3.3000000000000003
10 5.97515 3.4000000000000004
11 5.97515 3.0
12 2.987575 4.0
13 11.9503 3.3000000000000003
14 11.9503 3.1
15 11.9503 2.6500000000000004
16 11.9503 2.7
17 11.9503 2.6

Angle Coeffs

1 2.39006 127
2 83.6521 96
3 2.39006 100
4 2.39006 130
5 11.9503 98
6 2.987575 100
7 2.987575 180
8 5.97515 150
9 5.97515 210
10 5.97515 90

Dihedral Coeffs

1 95.6024 1 -120 0

Improper Coeffs

1 5.97515 0
2 23.9006 0

Atoms

1 1 1 1.0000 1.2549999 -0.027 -48.818
2 1 2 0.0000 0.0384367 0.20696299 -51.076897
3 1 3 -1.0000 -1.30743 -0.755582 -53.171303
4 1 4 0.0000 1.97304 2.10025 -54.179302
5 1 5 0.0000 2.6718802 0.65165603 -56.0327
6 1 4 0.0000 1.6911299 5.4741297 -54.903698
7 1 3 -1.0000 -1.77087 6.02988 -56.0093
8 1 4 0.0000 4.47603 6.04172 -56.545403
9 1 6 0.0000 7.17232 4.1195602 -56.0264
10 1 1 1.0000 8.02698 1.48726 -56.451
11 1 4 0.0000 3.8816402 4.88158 -59.4106
12 1 7 0.0000 1.46393 7.1248603 -60.591896
13 1 6 0.0000 -1.8248899 6.5057898 -61.0922
14 1 1 1.0000 -4.44917 6.2039204 -60.1046
15 1 7 0.0000 3.4022303 9.65569 -59.9795
16 1 6 0.0000 2.3864899 11.0077 -57.3279
17 1 1 1.0000 0.782236 10.404 -55.5368
18 1 7 0.0000 5.98318 9.270571 -62.0571
19 1 8 0.0000 8.44701 7.89003 -60.764698
20 1 9 0.0000 4.77217 9.855129 -64.6766
21 1 10 0.0000 5.57679 9.92393 -67.6333
22 1 10 0.0000 5.2236004 9.62919 -70.4751
23 1 10 0.0000 7.5592604 9.02701 -69.2813
24 1 9 0.0000 3.58722 12.762001 -63.9852
25 1 5 0.0000 1.6142299 14.4138 -64.2369
26 1 9 0.0000 6.4821796 14.0853 -63.237198
27 1 11 0.0000 5.03608 17.3182 -65.1086
28 1 9 0.0000 7.9548903 13.5069 -65.9178
29 1 6 0.0000 9.75646 11.175099 -65.5034
30 1 1 1.0000 11.2528 8.79236 -64.851
31 1 12 0.0000 6.43115 14.148399 -68.9265
32 1 13 0.0000 8.78172 14.0337 -71.2372
33 1 7 0.0000 4.19123 14.6168995 -69.283
34 1 12 0.0000 0.927758 12.4979 -68.5314
35 1 11 0.0000 -0.94667006 15.9377 -68.62
36 1 12 0.0000 0.0037843399 12.045601 -71.6325
37 1 13 0.0000 -1.2403 15.0844 -71.9052
38 1 2 0.0000 -0.535284 8.528689 -71.7701
39 1 14 0.0000 2.13481 7.1785 -72.5878
40 1 15 0.0000 4.04681 5.31223 -72.5866
41 1 15 0.0000 4.00277 7.57179 -74.0349
42 1 2 0.0000 -4.52765 7.9979 -71.5122
43 1 16 0.0000 -5.34909 8.124889 -73.9462
44 1 2 0.0000 -4.64046 7.30145 -68.6622
45 1 5 0.0000 -3.30034 5.50575 -67.566696
46 1 2 0.0000 -7.78259 6.27522 -65.1897
47 1 3 -1.0000 -5.98476 9.51359 -63.1638
48 1 12 0.0000 -11.3493 3.9724202 -64.5652
49 1 6 0.0000 -12.0743 2.63764 -61.5606
50 1 1 1.0000 -11.4622 1.5320399 -58.503998
51 1 12 0.0000 -12.722 5.4029202 -67.6994
52 1 2 0.0000 -9.76534 7.38707 -67.2401
53 1 2 0.0000 -10.792 10.7523 -66.356705
54 1 6 0.0000 -11.034499 9.36045 -62.8821
55 1 1 1.0000 -9.6231 7.4049 -60.9487
56 1 2 0.0000 -8.77862 11.914801 -69.8498
57 1 14 0.0000 -9.67065 9.58383 -71.6926
58 1 15 0.0000 -10.1866 7.00426 -72.6951
59 1 15 0.0000 -12.0863 8.85257 -71.911606
60 1 2 0.0000 -5.4114003 13.109799 -71.2881
61 1 6 0.0000 -4.17995 11.9701 -68.6583
62 1 1 1.0000 -3.0458 11.685801 -66.2918
63 1 2 0.0000 -3.47583 12.7834 -75.384895
64 1 16 0.0000 -3.0908399 14.907499 -76.54
65 1 2 0.0000 -0.88341403 10.437599 -76.8478
66 1 11 0.0000 0.448018 7.90564 -77.1751
67 1 6 0.0000 1.6637001 6.2697296 -79.1494
68 1 2 0.0000 -1.17865 4.46377 -75.0685
69 1 2 0.0000 -3.5274198 5.0053697 -77.353806
70 1 2 0.0000 -2.06477 3.26579 -72.4244
71 1 8 0.0000 0.0454874 2.6301801 -70.2398
72 1 12 0.0000 -5.8229203 2.5047498 -74.308304
73 1 14 0.0000 -7.62203 3.6459801 -71.9876
74 1 15 0.0000 -9.61996 3.12731 -70.1659
75 1 15 0.0000 -7.22122 3.13793 -69.4165
76 1 12 0.0000 -7.31034 -0.826045 -73.992096
77 1 2 0.0000 -5.36699 -2.06599 -71.3197
78 1 8 0.0000 -3.98896 -0.758556 -68.533005
79 1 12 0.0000 -6.22264 -5.62223 -70.2975
80 1 10 0.0000 -4.92166 -5.81701 -67.291595
81 1 10 0.0000 -2.6346703 -6.02541 -65.4713
82 1 10 0.0000 -5.0060396 -7.1556096 -64.876495
83 1 12 0.0000 -5.65665 -7.9745 -72.814896
84 1 2 0.0000 -5.5598903 -7.20152 -76.360405
85 1 7 0.0000 -3.9628198 -4.30306 -75.4559
86 1 1 1.0000 -2.6186202 -1.20069 -75.2675
87 1 2 0.0000 -3.65584 -7.6974497 -79.0776
88 1 6 0.0000 -1.02255 -9.2257 -79.87
89 1 1 1.0000 0.367545 -8.79424 -81.9835
90 1 12 0.0000 -2.2007 -4.50684 -79.805595
91 1 16 0.0000 -0.0612909 -3.69897 -78.891304
92 1 12 0.0000 -5.05085 -3.3618 -82.1904
93 1 2 0.0000 -6.28321 -1.2150301 -79.346
94 1 11 0.0000 -8.72316 -3.97907 -78.264496
95 1 11 0.0000 -7.90029 1.4255 -79.6945
96 1 7 0.0000 -10.001499 3.5069702 -77.0056
97 1 6 0.0000 -11.7419 1.99667 -75.0851
98 1 12 0.0000 -8.17782 6.1212897 -77.5932
99 1 2 0.0000 -7.54154 5.71708 -81.1812
100 1 10 0.0000 -7.3208804 8.01178 -83.1897
101 1 10 0.0000 -5.9879203 8.16222 -85.4301
102 1 10 0.0000 -7.0887704 10.5399 -84.1794
103 1 2 0.0000 -4.54038 3.9868598 -82.5447
104 1 16 0.0000 -5.4384203 2.05807 -84.1122
105 1 2 0.0000 -2.06567 5.75613 -82.4712
106 1 14 0.0000 -3.08855 8.22784 -80.979095
107 1 14 0.0000 -4.65728 9.68743 -79.3038
108 1 15 0.0000 -3.0883398 10.7199 -81.2931
109 1 2 0.0000 -1.0364101 4.31627 -86.08
110 1 16 0.0000 -1.79791 6.14115 -88.0886
111 1 4 0.0000 1.8080101 2.5244298 -85.8641
112 1 3 -1.0000 2.2300599 1.73579 -88.791595
113 1 7 0.0000 2.35497 2.05849 -82.7913
114 1 12 0.0000 -0.45737898 0.593561 -82.0361
115 1 2 0.0000 -0.831418 1.38955 -79.186104
116 1 12 0.0000 -0.14691901 -2.13837 -83.9325
117 1 6 0.0000 -2.43589 -1.1876 -86.441696
118 1 1 1.0000 -2.0755801 -0.0058108997 -88.6577
119 1 9 0.0000 2.66322 -3.2431302 -83.08211
120 1 2 0.0000 4.16447 -3.4212499 -86.361
121 1 2 0.0000 5.03932 -4.48398 -80.99049
122 1 6 0.0000 8.45333 -4.52306 -80.96831
123 1 1 1.0000 10.4644 -5.37634 -78.8876
124 1 2 0.0000 4.01433 -6.82625 -79.2023
125 1 2 0.0000 2.32742 -7.5312605 -76.8076
126 1 8 0.0000 2.70553 -10.6758995 -76.3599
127 1 2 0.0000 -0.395627 -7.19944 -74.489296
128 1 16 0.0000 -1.61182 -9.80853 -75.0253
129 1 2 0.0000 -1.3213899 -7.95322 -70.1947
130 1 14 0.0000 -1.2416301 -4.93594 -70.2259
131 1 17 0.0000 -0.17668399 -2.7490602 -71.4367
132 1 10 0.0000 0.313716 -4.8144298 -72.6368
133 1 10 0.0000 1.4453199 -2.68172 -73.625
134 1 2 0.0000 0.489896 -9.39326 -67.7288
135 1 6 0.0000 2.915 -11.6125 -67.5919
136 1 1 1.0000 4.55614 -11.7609005 -65.0497
137 1 4 0.0000 2.42324 -7.0433197 -66.215904
138 1 3 -1.0000 5.38837 -7.8144903 -62.9875
139 1 4 0.0000 5.12007 -7.74312 -67.812
140 1 3 -1.0000 5.9855003 -7.7958 -63.398098
141 1 4 0.0000 4.62319 -6.2048 -70.5498
142 1 16 0.0000 4.16963 -7.8673296 -72.4611
143 1 12 0.0000 4.87152 -3.21356 -69.4307
144 1 8 0.0000 3.93134 -0.27130002 -69.6297
145 1 9 0.0000 7.94229 -3.4238899 -68.7391
146 1 13 0.0000 9.75231 -5.81348 -66.5367
147 1 9 0.0000 8.90529 -3.6350598 -71.629196
148 1 3 -1.0000 11.985001 -4.13959 -74.3923
149 1 9 0.0000 7.7416 -0.519652 -72.5528
150 1 14 0.0000 5.01832 0.943861 -74.6717
151 1 14 0.0000 3.88348 2.93416 -76.2935
152 1 15 0.0000 2.4733 1.3840001 -74.4056
153 1 12 0.0000 9.54112 1.51007 -71.495804
154 1 8 0.0000 7.2828197 3.39676 -69.8919
155 1 12 0.0000 12.5 1.0058401 -72.4054
156 1 3 -1.0000 15.9042 0.0970573 -70.9521
157 1 2 0.0000 12.8713 3.1698701 -74.2571
158 1 2 0.0000 15.2979 5.48746 -74.1463
159 1 7 0.0000 10.1644 3.34086 -75.7591
160 1 6 0.0000 8.31555 5.13284 -74.4232
161 1 12 0.0000 11.4176 2.9519298 -78.5461
162 1 6 0.0000 13.2162 5.9384003 -78.0762
163 1 1 1.0000 12.023601 8.51451 -77.7573
164 1 12 0.0000 11.4592 -0.423073 -78.1232
165 1 6 0.0000 14.7797 -0.30684298 -77.8728
166 1 1 1.0000 15.865299 -1.3215799 -75.2568
167 1 12 0.0000 8.35202 -0.51353204 -77.7699
168 1 14 0.0000 7.37041 -2.94339 -76.3089
169 1 14 0.0000 4.92768 -3.8772402 -75.7274
170 1 15 0.0000 6.90898 -5.63177 -75.4805
171 1 2 0.0000 6.2139397 0.322558 -79.737305
172 1 8 0.0000 3.6638 -0.71375 -79.2638
173 1 7 0.0000 6.8339596 0.20466101 -83.4882
174 1 6 0.0000 8.663799 -1.64445 -85.1145
175 1 12 0.0000 8.78498 3.00605 -83.151505
176 1 2 0.0000 6.06876 4.45273 -80.6816
177 1 16 0.0000 6.5828505 6.0731797 -78.7022
178 1 2 0.0000 4.46568 6.39858 -83.526695
179 1 6 0.0000 6.23568 5.4270797 -85.7337
180 1 1 1.0000 6.53983 3.3092 -87.7893
181 1 2 0.0000 2.73498 8.18419 -83.4772
182 1 13 0.0000 2.14136 8.81703 -87.2324
183 1 2 0.0000 2.88775 10.497499 -80.7212
184 1 8 0.0000 1.61893 13.3141 -81.1178
185 1 2 0.0000 4.68072 10.865999 -78.0662
186 1 10 0.0000 3.3294601 13.538099 -76.9643
187 1 10 0.0000 4.05718 15.9265995 -75.3459
188 1 10 0.0000 1.7318401 15.3607 -75.7297
189 1 11 0.0000 7.59306 10.5936 -76.144196
190 1 2 0.0000 9.29558 9.8181305 -73.8131
191 1 2 0.0000 11.3475 7.51337 -71.2784
192 1 8 0.0000 12.6659 10.0639 -69.752304
193 1 2 0.0000 11.9836 4.79746 -69.0191
194 1 6 0.0000 14.6133995 5.0075903 -69.0614
195 1 1 1.0000 16.948399 3.97499 -68.7189
196 1 2 0.0000 15.4745 1.0120701 -65.885
197 1 6 0.0000 18.1052 2.46872 -63.726402
198 1 1 1.0000 17.1992 3.8952801 -61.2372
199 1 4 0.0000 14.6554 -1.08012 -63.4872
200 1 6 0.0000 11.8987 -3.99663 -62.3987
201 1 1 1.0000 9.06755 -5.01575 -61.8674
202 1 4 0.0000 13.066 0.769592 -61.7257
203 1 16 0.0000 12.2502 0.098055705 -59.340202
204 1 4 0.0000 12.217799 3.17069 -63.911
205 1 3 -1.0000 14.990799 5.96569 -64.561905
206 1 4 0.0000 10.4345 1.0443101 -65.7236
207 1 7 0.0000 12.073099 -1.21239 -67.8008
208 1 1 1.0000 13.134399 -3.47635 -69.6998
209 1 7 0.0000 8.9054 -0.0364339 -63.272
210 1 3 -1.0000 7.27587 -1.72369 -59.6669
211 1 7 0.0000 7.11735 2.57066 -62.226402
212 1 3 -1.0000 6.0013905 -0.437092 -59.9445
213 1 7 0.0000 5.67802 2.7536 -65.3769
214 1 8 0.0000 7.09399 5.7716503 -65.706604
215 1 7 0.0000 4.387 -0.060742103 -65.0415
216 1 8 0.0000 5.06248 -2.94666 -64.8978
217 1 13 0.0000 2.42575 0.786447 -62.3243
218 1 7 0.0000 0.75086105 2.92236 -63.526604
219 1 14 0.0000 1.64564 5.5075097 -65.532394
220 1 14 0.0000 2.23498 6.58066 -68.0059
221 1 15 0.0000 0.727512 8.02136 -66.198105
222 1 7 0.0000 -0.662986 0.750973 -65.619
223 1 8 0.0000 0.449735 -2.14647 -66.8778
224 1 7 0.0000 -1.71318 -0.97085 -62.989002
225 1 6 0.0000 0.514014 -3.56403 -61.975597
226 1 1 1.0000 3.41436 -4.2206 -60.9305
227 1 9 0.0000 -3.17486 1.5134 -61.733498
228 1 6 0.0000 -2.8472998 1.83427 -58.2192
229 1 1 1.0000 -4.02901 1.9200801 -55.9756
230 1 7 0.0000 -5.38868 2.19454 -64.2209
231 1 9 0.0000 -6.81747 -0.499512 -64.2014
232 1 16 0.0000 -8.50598 -1.2934899 -66.2285
233 1 9 0.0000 -7.8069696 -0.46011 -61.143997
234 1 2 0.0000 -6.7546396 -2.3189301 -59.2939
235 1 3 -1.0000 -7.71635 2.7811198 -60.5393
236 1 3 -1.0000 -7.90566 4.613 -57.695698

Bonds

1 1 1 2
2 1 31 33
3 1 33 34
4 1 34 36
5 1 36 38
6 1 38 42
7 1 42 44
8 1 44 46
9 1 46 48
10 1 48 51
11 1 51 52
12 1 52 53
13 1 53 56
14 1 56 60
15 1 60 63
16 1 63 65
17 1 65 66
18 1 66 68
19 1 68 70
20 1 70 72
21 1 72 76
22 1 76 77
23 1 77 79
24 1 79 83
25 1 83 84
26 1 84 87
27 1 87 90
28 1 90 92
29 1 92 93
30 1 93 95
31 1 95 96
32 1 96 98
33 1 98 99
34 1 99 103
35 1 103 105
36 1 105 109
37 1 121 124
38 1 124 125
39 1 125 127
40 1 127 129
41 1 129 134
42 1 153 155
43 1 155 157
44 1 171 173
45 1 173 175
46 1 175 176
47 1 176 178
48 1 178 181
49 1 181 183
50 1 183 185
51 1 185 189
52 1 189 190
53 1 190 191
54 1 191 193
55 1 193 196
56 2 2 3
57 3 6 7
58 4 8 9
59 5 9 10
60 4 12 13
61 5 13 14
62 4 15 16
63 5 16 17
64 6 20 21
65 3 26 27
66 4 28 29
67 5 29 30
68 6 31 32
69 3 34 35
70 6 36 37
71 2 38 39
72 3 46 47
73 4 48 49
74 5 49 50
75 4 53 54
76 5 54 55
77 2 56 57
78 4 60 61
79 5 61 62
80 7 66 67
81 8 68 69
82 9 70 71
83 2 72 73
84 9 77 78
85 6 79 80
86 4 84 85
87 10 85 86
88 4 87 88
89 5 88 89
90 3 93 94
91 7 96 97
92 6 99 100
93 8 105 106
94 2 111 112
95 8 114 115
96 4 116 117
97 5 117 118
98 8 119 120
99 4 121 122
100 5 122 123
101 11 129 130
102 4 134 135
103 5 135 136
104 3 137 138
105 3 139 140
106 9 143 144
107 12 145 146
108 3 147 148
109 8 149 150
110 9 153 154
111 3 155 156
112 8 157 158
113 7 159 160
114 4 161 162
115 5 162 163
116 4 164 165
117 5 165 166
118 8 167 168
119 7 173 174
120 4 178 179
121 5 179 180
122 12 181 182
123 6 185 186
124 4 193 194
125 5 194 195
126 4 196 197
127 5 197 198
128 4 199 200
129 5 200 201
130 3 204 205
131 4 206 207
132 10 207 208
133 3 209 210
134 2 211 212
135 9 213 214
136 8 218 219
137 9 222 223
138 4 224 225
139 5 225 226
140 4 227 228
141 5 228 229
142 8 233 234
143 3 235 236
144 13 2 4
145 14 4 6
146 14 6 8
147 14 8 11
148 14 11 12
149 14 12 15
150 14 15 18
151 14 18 20
152 14 20 24
153 14 24 26
154 14 26 28
155 13 28 31
156 13 109 111
157 14 111 113
158 14 113 114
159 14 114 116
160 14 116 119
161 13 119 121
162 13 134 137
163 14 137 139
164 14 139 141
165 14 141 143
166 14 143 145
167 14 145 147
168 14 147 149
169 13 149 153
170 13 157 159
171 14 159 161
172 14 161 164
173 14 164 167
174 13 167 171
175 13 196 199
176 14 199 202
177 14 202 204
178 14 204 206
179 14 206 209
180 14 209 211
181 14 211 213
182 14 213 215
183 14 215 217
184 14 217 218
185 14 218 222
186 14 222 224
187 14 224 227
188 14 227 230
189 14 230 231
190 14 231 233
191 13 233 235
192 15 4 5
193 14 18 19
194 16 21 22
195 16 21 23
196 16 22 23
197 15 24 25
198 16 39 40
199 16 39 41
200 16 40 41
201 17 42 43
202 15 44 45
203 16 57 58
204 16 57 59
205 16 58 59
206 17 63 64
207 16 73 74
208 16 73 75
209 16 74 75
210 16 80 81
211 16 80 82
212 16 81 82
213 17 90 91
214 16 100 101
215 16 100 102
216 16 101 102
217 17 103 104
218 16 106 107
219 16 106 108
220 16 107 108
221 17 109 110
222 14 125 126
223 17 127 128
224 16 130 131
225 16 130 132
226 16 131 132
227 16 131 133
228 16 132 133
229 17 141 142
230 16 150 151
231 16 150 152
232 16 151 152
233 16 168 169
234 16 168 170
235 16 169 170
236 14 171 172
237 17 176 177
238 14 183 184
239 16 186 187
240 16 186 188
241 16 187 188
242 14 191 192
243 17 202 203
244 14 215 216
245 16 219 220
246 16 219 221
247 16 220 221
248 17 231 232

Angles

1 1 1 2 4
2 1 2 4 6
3 2 4 6 8
4 2 6 8 11
5 2 8 11 12
6 2 11 12 15
7 2 12 15 18
8 2 15 18 20
9 2 18 20 24
10 2 20 24 26
11 2 24 26 28
12 3 26 28 31
13 3 28 31 33
14 3 31 33 34
15 3 33 34 36
16 3 34 36 38
17 3 36 38 42
18 1 38 42 44
19 1 42 44 46
20 3 44 46 48
21 3 46 48 51
22 3 48 51 52
23 3 51 52 53
24 1 52 53 56
25 1 53 56 60
26 1 56 60 63
27 1 60 63 65
28 4 63 65 66
29 1 65 66 68
30 1 66 68 70
31 3 68 70 72
32 3 70 72 76
33 3 72 76 77
34 3 76 77 79
35 3 77 79 83
36 3 79 83 84
37 3 83 84 87
38 3 84 87 90
39 3 87 90 92
40 3 90 92 93
41 3 92 93 95
42 1 93 95 96
43 3 95 96 98
44 3 96 98 99
45 3 98 99 103
46 1 99 103 105
47 1 103 105 109
48 1 105 109 111
49 1 109 111 113
50 2 111 113 114
51 2 113 114 116
52 2 114 116 119
53 1 116 119 121
54 1 119 121 124
55 1 121 124 125
56 1 124 125 127
57 1 125 127 129
58 1 127 129 134
59 1 129 134 137
60 4 134 137 139
61 2 137 139 141
62 2 139 141 143
63 2 141 143 145
64 2 143 145 147
65 2 145 147 149
66 3 147 149 153
67 3 149 153 155
68 3 153 155 157
69 3 155 157 159
70 5 157 159 161
71 5 159 161 164
72 2 161 164 167
73 4 164 167 171
74 4 167 171 173
75 3 171 173 175
76 3 173 175 176
77 3 175 176 178
78 1 176 178 181
79 1 178 181 183
80 1 181 183 185
81 1 183 185 189
82 1 185 189 190
83 1 189 190 191
84 1 190 191 193
85 1 191 193 196
86 1 193 196 199
87 4 196 199 202
88 2 199 202 204
89 2 202 204 206
90 2 204 206 209
91 2 206 209 211
92 2 209 211 213
93 2 211 213 215
94 2 213 215 217
95 2 215 217 218
96 2 217 218 222
97 2 218 222 224
98 2 222 224 227
99 2 224 227 230
100 2 227 230 231
101 2 230 231 233
102 1 231 233 235
103 6 1 2 3
104 6 2 4 5
105 6 4 6 7
106 6 6 8 9
107 6 11 12 13
108 6 12 15 16
109 6 15 18 19
110 6 18 20 21
111 6 20 24 25
112 6 24 26 27
113 6 26 28 29
114 6 28 31 32
115 6 33 34 35
116 6 34 36 37
117 6 36 38 39
118 6 38 42 43
119 6 42 44 45
120 6 44 46 47
121 6 46 48 49
122 6 52 53 54
123 6 53 56 57
124 6 56 60 61
125 6 60 63 64
126 6 65 66 67
127 6 66 68 69
128 6 68 70 71
129 6 70 72 73
130 6 76 77 78
131 6 77 79 80
132 6 83 84 85
133 6 84 87 88
134 6 87 90 91
135 6 92 93 94
136 6 95 96 97
137 6 98 99 100
138 6 99 103 104
139 6 103 105 106
140 6 105 109 110
141 6 109 111 112
142 6 113 114 115
143 6 114 116 117
144 6 116 119 120
145 6 119 121 122
146 6 124 125 126
147 6 125 127 128
148 6 127 129 130
149 6 129 134 135
150 6 134 137 138
151 6 137 139 140
152 6 139 141 142
153 6 141 143 144
154 6 143 145 146
155 6 145 147 148
156 6 147 149 150
157 6 149 153 154
158 6 153 155 156
159 6 155 157 158
160 6 157 159 160
161 6 159 161 162
162 6 161 164 165
163 6 164 167 168
164 6 167 171 172
165 6 171 173 174
166 6 175 176 177
167 6 176 178 179
168 6 178 181 182
169 6 181 183 184
170 6 183 185 186
171 6 190 191 192
172 6 191 193 194
173 6 193 196 197
174 6 196 199 200
175 6 199 202 203
176 6 202 204 205
177 6 204 206 207
178 6 206 209 210
179 6 209 211 212
180 6 211 213 214
181 6 213 215 216
182 6 217 218 219
183 6 218 222 223
184 6 222 224 225
185 6 224 227 228
186 6 230 231 232
187 6 231 233 234
188 6 233 235 236
189 7 8 9 10
190 7 12 13 14
191 7 15 16 17
192 8 20 21 22
193 8 20 21 23
194 7 28 29 30
195 8 38 39 40
196 8 38 39 41
197 7 48 49 50
198 7 53 54 55
199 8 56 57 58
200 8 56 57 59
201 7 60 61 62
202 8 72 73 74
203 8 72 73 75
204 8 79 80 81
205 8 79 80 82
206 7 84 85 86
207 7 87 88 89
208 8 99 100 101
209 8 99 100 102
210 8 105 106 107
211 8 105 106 108
212 7 116 117 118
213 7 121 122 123
214 9 129 130 131
215 10 129 130 132
216 7 134 135 136
217 8 149 150 151
218 8 149 150 152
219 7 161 162 163
220 7 164 165 166
221 8 167 168 169
222 8 167 168 170
223 7 178 179 180
224 8 185 186 187
225 8 185 186 188
226 7 193 194 195
227 7 196 197 198
228 7 199 200 201
229 7 206 207 208
230 8 218 219 220
231 8 218 219 221
232 7 224 225 226
233 7 227 228 229

Dihedrals

1 1 4 6 8 11
2 1 6 8 11 12
3 1 8 11 12 15
4 1 11 12 15 18
5 1 12 15 18 20
6 1 15 18 20 24
7 1 18 20 24 26
8 1 20 24 26 28
9 1 111 113 114 116
10 1 113 114 116 119
11 1 137 139 141 143
12 1 139 141 143 145
13 1 141 143 145 147
14 1 143 145 147 149
15 1 159 161 164 167
16 1 199 202 204 206
17 1 202 204 206 209
18 1 204 206 209 211
19 1 206 209 211 213
20 1 209 211 213 215
21 1 211 213 215 217
22 1 213 215 217 218
23 1 215 217 218 222
24 1 217 218 222 224
25 1 218 222 224 227
26 1 222 224 227 230
27 1 224 227 230 231
28 1 227 230 231 233

Impropers

1 1 20 22 23 21
2 1 38 40 41 39
3 1 56 58 59 57
4 1 72 74 75 73
5 1 79 81 82 80
6 1 99 101 102 100
7 1 105 107 108 106
8 1 129 131 132 130
9 2 130 131 133 132
10 1 149 151 152 150
11 1 167 169 170 168
12 1 185 187 188 186
13 1 218 220 221 219

