comment

236 atoms
248 bonds
233 angles
28 dihedrals
13 impropers

17 atom types
17 bond types
10 angle types
1 dihedral types
2 improper types

-40.5 40.5 xlo xhi
-40.5 40.5 ylo yhi
-190.0 190.0 zlo zhi

Masses

1 72.0
2 72.0
3 72.0
4 72.0
5 72.0
6 72.0
7 72.0
8 72.0
9 72.0
10 45.0
11 72.0
12 72.0
13 72.0
14 45.0
15 45.0
16 72.0
17 45.0

PairIJ Coeffs

1 1 1.19503 4.699999999999999
1 2 1.3384336 4.699999999999999
1 3 1.3384336 4.699999999999999
1 4 0.956024 4.699999999999999
1 5 0.478012 4.699999999999999
1 6 0.5497137999999999 4.699999999999999
1 7 0.836521 4.699999999999999
1 8 0.478012 4.699999999999999
1 9 1.19503 4.699999999999999
1 10 0.7409186 4.699999999999999
1 11 1.3384336 4.699999999999999
1 12 1.19503 4.699999999999999
1 13 0.7409186 4.699999999999999
1 14 0.6453162 4.699999999999999
1 15 1.19503 4.699999999999999
1 16 1.19503 4.699999999999999
1 17 0.956024 4.699999999999999
2 2 1.3384336 4.699999999999999
2 3 1.3384336 4.699999999999999
2 4 1.19503 4.699999999999999
2 5 0.5497137999999999 4.699999999999999
2 6 0.6453162 4.699999999999999
2 7 0.836521 4.699999999999999
2 8 0.478012 4.699999999999999
2 9 1.19503 4.699999999999999
2 10 0.7409186 4.699999999999999
2 11 1.3384336 4.699999999999999
2 12 1.19503 4.699999999999999
2 13 0.7409186 4.699999999999999
2 14 0.6453162 4.699999999999999
2 15 1.3384336 4.699999999999999
2 16 1.3384336 4.699999999999999
2 17 1.19503 4.699999999999999
3 3 1.19503 4.699999999999999
3 4 1.19503 4.699999999999999
3 5 0.478012 4.699999999999999
3 6 0.5497137999999999 4.699999999999999
3 7 0.836521 4.699999999999999
3 8 0.478012 4.699999999999999
3 9 0.956024 4.699999999999999
3 10 0.7409186 4.699999999999999
3 11 1.3384336 4.699999999999999
3 12 1.19503 4.699999999999999
3 13 0.7409186 4.699999999999999
3 14 0.6453162 4.699999999999999
3 15 1.19503 4.699999999999999
3 16 1.19503 4.699999999999999
3 17 1.19503 4.699999999999999
4 4 0.956024 4.699999999999999
4 5 0.6453162 4.699999999999999
4 6 0.6453162 4.699999999999999
4 7 0.836521 4.699999999999999
4 8 0.6453162 4.699999999999999
4 9 1.075527 4.699999999999999
4 10 0.836521 4.699999999999999
4 11 0.956024 4.699999999999999
4 12 1.075527 4.699999999999999
4 13 0.836521 4.699999999999999
4 14 0.7409186 4.699999999999999
4 15 1.075527 4.699999999999999
4 16 1.075527 4.699999999999999
4 17 0.956024 4.699999999999999
5 5 0.836521 4.699999999999999
5 6 0.836521 4.699999999999999
5 7 0.7409186 4.699999999999999
5 8 0.836521 4.699999999999999
5 9 0.6453162 4.699999999999999
5 10 0.7409186 4.699999999999999
5 11 0.5497137999999999 4.699999999999999
5 12 0.6453162 4.699999999999999
5 13 0.7409186 4.699999999999999
5 14 0.7409186 4.699999999999999
5 15 0.7409186 4.699999999999999
5 16 0.7409186 4.699999999999999
5 17 0.6453162 4.699999999999999
6 6 0.836521 4.699999999999999
6 7 0.836521 4.699999999999999
6 8 0.836521 4.699999999999999
6 9 0.6453162 4.699999999999999
6 10 0.836521 4.699999999999999
6 11 0.6453162 4.699999999999999
6 12 0.6453162 4.699999999999999
6 13 0.836521 4.699999999999999
6 14 0.836521 4.699999999999999
6 15 0.836521 4.699999999999999
6 16 0.836521 4.699999999999999
6 17 0.6453162 4.699999999999999
7 7 0.836521 4.699999999999999
7 8 0.6453162 4.699999999999999
7 9 0.836521 4.699999999999999
7 10 0.836521 4.699999999999999
7 11 0.836521 4.699999999999999
7 12 0.836521 4.699999999999999
7 13 0.836521 4.699999999999999
7 14 0.836521 4.699999999999999
7 15 0.956024 4.699999999999999
7 16 0.956024 4.699999999999999
7 17 0.836521 4.699999999999999
8 8 0.836521 4.699999999999999
8 9 0.6453162 4.699999999999999
8 10 0.7409186 4.699999999999999
8 11 0.478012 4.699999999999999
8 12 0.6453162 4.699999999999999
8 13 0.7409186 4.699999999999999
8 14 0.7409186 4.699999999999999
8 15 0.6453162 4.699999999999999
8 16 0.6453162 4.699999999999999
8 17 0.6453162 4.699999999999999
9 9 0.956024 4.699999999999999
9 10 0.836521 4.699999999999999
9 11 0.956024 4.699999999999999
9 12 1.075527 4.699999999999999
9 13 0.836521 4.699999999999999
9 14 0.7409186 4.699999999999999
9 15 1.075527 4.699999999999999
9 16 1.075527 4.699999999999999
9 17 1.075527 4.699999999999999
10 10 0.62739075 4.3
10 11 0.7409186 4.699999999999999
10 12 0.836521 4.699999999999999
10 13 0.836521 4.699999999999999
10 14 0.62739075 4.3
10 15 0.62739075 4.3
10 16 0.836521 4.699999999999999
10 17 0.62739075 4.3
11 11 1.19503 4.699999999999999
11 12 0.956024 4.699999999999999
11 13 0.7409186 4.699999999999999
11 14 0.6453162 4.699999999999999
11 15 1.075527 4.699999999999999
11 16 1.075527 4.699999999999999
11 17 0.956024 4.699999999999999
12 12 1.075527 4.699999999999999
12 13 0.836521 4.699999999999999
12 14 0.7409186 4.699999999999999
12 15 1.075527 4.699999999999999
12 16 1.075527 4.699999999999999
12 17 1.075527 4.699999999999999
13 13 0.836521 4.699999999999999
13 14 0.836521 4.699999999999999
13 15 0.836521 4.699999999999999
13 16 0.836521 4.699999999999999
13 17 0.836521 4.699999999999999
14 14 0.62739075 4.3
14 15 0.62739075 4.3
14 16 0.836521 4.699999999999999
14 17 0.5556889500000001 4.3
15 15 0.80664525 4.3
15 16 1.075527 4.699999999999999
15 17 0.80664525 4.3
16 16 1.075527 4.699999999999999
16 17 1.075527 4.699999999999999
17 17 0.7170179999999999 4.3

Bond Coeffs

1 1.4937875 3.5
2 8.962725 3.2
3 5.97515 4.0
4 5.97515 3.3000000000000003
5 5.97515 2.8000000000000003
6 8.962725 3.1
7 8.962725 3.0
8 5.97515 3.2
9 8.962725 3.3000000000000003
10 5.97515 3.4000000000000004
11 5.97515 3.0
12 2.987575 4.0
13 11.9503 3.3000000000000003
14 11.9503 3.1
15 11.9503 2.6500000000000004
16 11.9503 2.7
17 11.9503 2.6

Angle Coeffs

1 2.39006 127
2 83.6521 96
3 2.39006 100
4 2.39006 130
5 11.9503 98
6 2.987575 100
7 2.987575 180
8 5.97515 150
9 5.97515 210
10 5.97515 90

Dihedral Coeffs

1 95.6024 1 -120 0

Improper Coeffs

1 5.97515 0
2 23.9006 0

Atoms

1 1 1 1.0000 1.2549999 -0.027 -48.818
2 1 2 0.0000 0.190681 0.248854 -51.066097
3 1 3 -1.0000 -1.00836 -1.0298 -53.09
4 1 4 0.0000 1.63871 2.23949 -54.3507
5 1 5 0.0000 3.30055 0.40925398 -55.7058
6 1 4 0.0000 1.5046201 5.25518 -54.801502
7 1 3 -1.0000 -1.7759401 6.2236204 -55.959602
8 1 4 0.0000 4.21604 5.81264 -55.9689
9 1 6 0.0000 7.01505 3.8799598 -55.037598
10 1 1 1.0000 8.2198105 2.51668 -57.0598
11 1 4 0.0000 4.0454397 4.74557 -59.1457
12 1 7 0.0000 1.76937 6.93506 -60.1698
13 1 6 0.0000 -1.22681 6.97012 -60.8428
14 1 1 1.0000 -4.18618 6.06473 -60.109
15 1 7 0.0000 3.4755702 9.56011 -59.4403
16 1 6 0.0000 2.16986 11.268701 -56.8143
17 1 1 1.0000 0.274779 10.394501 -54.8275
18 1 7 0.0000 6.20131 9.049641 -61.3394
19 1 8 0.0000 8.1471405 6.8780603 -59.7573
20 1 9 0.0000 4.54999 9.63881 -64.1715
21 1 10 0.0000 4.9774303 9.45324 -67.268
22 1 10 0.0000 4.9225802 9.54714 -69.7107
23 1 10 0.0000 7.1772804 8.74073 -69.2027
24 1 9 0.0000 3.52068 12.698 -63.7789
25 1 5 0.0000 1.50754 14.5618 -63.5261
26 1 9 0.0000 6.63485 14.057899 -63.1918
27 1 11 0.0000 4.87474 17.306301 -64.7784
28 1 9 0.0000 8.11875 12.926701 -65.9377
29 1 6 0.0000 9.1741 10.5831 -65.1834
30 1 1 1.0000 11.4133 8.76147 -64.7858
31 1 12 0.0000 7.45651 13.9752 -69.0028
32 1 13 0.0000 8.76549 13.942699 -71.3459
33 1 7 0.0000 3.7536402 14.4201 -68.9755
34 1 12 0.0000 1.2576599 12.6679 -68.4063
35 1 11 0.0000 -1.5775099 15.9339 -68.3935
36 1 12 0.0000 0.0789735 12.6264 -71.8893
37 1 13 0.0000 -0.293046 15.7239 -71.3881
38 1 2 0.0000 -0.211209 9.185141 -71.1663
39 1 14 0.0000 2.1968799 7.63908 -72.1763
40 1 15 0.0000 3.4029002 5.7398405 -72.1678
41 1 15 0.0000 3.8414698 7.14628 -74.217
42 1 2 0.0000 -3.40308 7.6824703 -71.1763
43 1 16 0.0000 -4.2550297 8.25849 -73.4841
44 1 2 0.0000 -4.42722 6.90324 -68.1969
45 1 5 0.0000 -3.34396 4.71842 -67.359
46 1 2 0.0000 -6.8235598 6.9401097 -65.0766
47 1 3 -1.0000 -5.34316 9.73481 -62.505104
48 1 12 0.0000 -10.167101 4.20707 -64.4902
49 1 6 0.0000 -11.5079 2.6249 -61.597298
50 1 1 1.0000 -11.6125 1.42408 -59.260704
51 1 12 0.0000 -12.592899 5.7508097 -66.4778
52 1 2 0.0000 -9.274651 8.49932 -67.4185
53 1 2 0.0000 -10.614901 10.5788 -66.2655
54 1 6 0.0000 -10.5207 9.20376 -62.980198
55 1 1 1.0000 -9.1193695 7.49008 -60.955902
56 1 2 0.0000 -9.51847 12.8251 -69.7759
57 1 14 0.0000 -10.1799 10.4568 -72.2787
58 1 15 0.0000 -8.77669 8.28704 -72.3289
59 1 15 0.0000 -11.5836 8.21727 -72.235596
60 1 2 0.0000 -5.31336 12.951799 -71.559204
61 1 6 0.0000 -4.57052 11.7068 -68.4687
62 1 1 1.0000 -2.82393 11.1445 -66.0917
63 1 2 0.0000 -3.62594 12.9887 -75.2539
64 1 16 0.0000 -3.81206 14.952299 -76.855606
65 1 2 0.0000 -0.99475896 10.472899 -76.813995
66 1 11 0.0000 -0.0113912 6.71095 -77.108696
67 1 6 0.0000 1.40856 5.85675 -79.2959
68 1 2 0.0000 -1.3313601 4.4840403 -74.6427
69 1 2 0.0000 -4.08777 3.81621 -76.9621
70 1 2 0.0000 -2.05044 2.38096 -72.6289
71 1 8 0.0000 0.0654372 2.3138 -70.5914
72 1 12 0.0000 -5.61369 2.79685 -73.938896
73 1 14 0.0000 -7.02808 3.12572 -71.2909
74 1 15 0.0000 -9.284679 4.10405 -70.232
75 1 15 0.0000 -7.61482 3.0236502 -68.547
76 1 12 0.0000 -7.3296204 -1.3880501 -73.3352
77 1 2 0.0000 -4.85897 -2.52056 -70.991905
78 1 8 0.0000 -4.54493 -0.574444 -68.6149
79 1 12 0.0000 -6.07761 -5.06985 -70.2689
80 1 10 0.0000 -4.72731 -6.2523403 -67.6166
81 1 10 0.0000 -3.85392 -5.62927 -65.3128
82 1 10 0.0000 -6.1637697 -6.96423 -65.4744
83 1 12 0.0000 -5.1986003 -7.67453 -72.7151
84 1 2 0.0000 -4.64569 -7.02864 -76.3981
85 1 7 0.0000 -3.90626 -4.2038198 -75.801605
86 1 1 1.0000 -3.3417299 -1.09613 -76.142
87 1 2 0.0000 -3.94737 -8.26736 -79.7808
88 1 6 0.0000 -0.776662 -9.24195 -80.4079
89 1 1 1.0000 1.32443 -11.2681 -81.32941
90 1 12 0.0000 -1.94081 -4.12364 -80.1999
91 1 16 0.0000 0.0871196 -4.18231 -78.7342
92 1 12 0.0000 -5.4361496 -3.34574 -81.0728
93 1 2 0.0000 -6.6004095 -0.519674 -79.470505
94 1 11 0.0000 -9.04011 -3.46374 -77.614296
95 1 11 0.0000 -8.18322 1.9224399 -78.429596
96 1 7 0.0000 -10.101 4.80658 -75.6693
97 1 6 0.0000 -12.3022995 3.0121899 -74.8861
98 1 12 0.0000 -8.30188 7.08803 -76.761795
99 1 2 0.0000 -7.4607096 5.6630096 -80.2621
100 1 10 0.0000 -7.30156 7.80802 -82.8606
101 1 10 0.0000 -5.71599 7.99511 -84.7186
102 1 10 0.0000 -7.3965597 10.2896 -84.256096
103 1 2 0.0000 -4.6156497 3.7635498 -82.1524
104 1 16 0.0000 -5.55562 1.6456499 -83.961296
105 1 2 0.0000 -1.9607501 5.76659 -82.496994
106 1 14 0.0000 -3.1933098 8.325399 -81.12779
107 1 14 0.0000 -4.71901 9.49173 -79.4274
108 1 15 0.0000 -3.07629 10.809899 -81.35339
109 1 2 0.0000 -0.87679696 4.68937 -85.639
110 1 16 0.0000 -2.31371 5.67271 -87.8485
111 1 4 0.0000 2.00364 3.2427902 -85.5867
112 1 3 -1.0000 2.1967502 1.35064 -87.952
113 1 7 0.0000 2.7420602 2.21072 -82.7301
114 1 12 0.0000 0.00548084 0.92305696 -81.8913
115 1 2 0.0000 0.0132279005 1.4205899 -78.939804
116 1 12 0.0000 -0.193465 -1.2997501 -84.2403
117 1 6 0.0000 -2.10257 -0.804306 -86.6388
118 1 1 1.0000 -2.42651 0.70074904 -89.1103
119 1 9 0.0000 2.44095 -3.1188102 -83.3648
120 1 2 0.0000 4.32219 -2.80247 -86.382996
121 1 2 0.0000 4.2546997 -5.5002203 -81.757
122 1 6 0.0000 7.65651 -4.73337 -81.4429
123 1 1 1.0000 10.191999 -5.1827803 -79.5866
124 1 2 0.0000 3.85387 -7.3398204 -79.5876
125 1 2 0.0000 2.7304301 -7.88509 -76.7856
126 1 8 0.0000 2.66357 -11.1311 -76.4244
127 1 2 0.0000 0.133882 -7.72056 -74.0874
128 1 16 0.0000 -0.96110797 -10.053901 -74.7857
129 1 2 0.0000 -0.748882 -8.19539 -70.0075
130 1 14 0.0000 -0.95444703 -5.14252 -70.5141
131 1 17 0.0000 -0.0345953 -2.82873 -71.7588
132 1 10 0.0000 0.0837718 -5.2304 -73.1119
133 1 10 0.0000 0.925703 -2.8958898 -74.0273
134 1 2 0.0000 -0.00884562 -8.42484 -66.2092
135 1 6 0.0000 2.9265401 -10.755 -67.391
136 1 1 1.0000 4.72881 -11.7707 -65.3765
137 1 4 0.0000 2.49994 -6.41787 -66.1009
138 1 3 -1.0000 5.20687 -8.0451 -62.6101
139 1 4 0.0000 5.2314 -7.5089097 -67.504
140 1 3 -1.0000 6.54684 -8.00508 -63.6333
141 1 4 0.0000 4.5559998 -6.35587 -70.6911
142 1 16 0.0000 5.02699 -8.36735 -72.2414
143 1 12 0.0000 4.80986 -3.53232 -69.7324
144 1 8 0.0000 4.05657 -0.68436897 -70.1196
145 1 9 0.0000 7.99191 -3.5417 -68.7305
146 1 13 0.0000 10.4148 -6.11594 -66.749
147 1 9 0.0000 8.95899 -3.2288501 -72.04
148 1 3 -1.0000 11.5555 -4.10925 -74.912
149 1 9 0.0000 7.5559597 -0.28507298 -72.6729
150 1 14 0.0000 5.56102 0.906129 -74.6318
151 1 14 0.0000 4.19421 2.8979201 -76.2283
152 1 15 0.0000 2.95459 1.12269 -74.9925
153 1 12 0.0000 9.3244 1.60653 -71.1658
154 1 8 0.0000 7.20937 3.6121101 -70.1647
155 1 12 0.0000 12.4499 0.95423603 -72.1615
156 1 3 -1.0000 16.2559 0.264519 -71.2775
157 1 2 0.0000 13.3676 3.59496 -73.9968
158 1 2 0.0000 16.253 4.22323 -74.4328
159 1 7 0.0000 10.243599 3.52248 -75.346596
160 1 6 0.0000 8.73203 5.39172 -74.1773
161 1 12 0.0000 11.0487995 3.55446 -78.492195
162 1 6 0.0000 12.481299 6.44587 -79.535095
163 1 1 1.0000 11.5092 9.06316 -80.158005
164 1 12 0.0000 11.5007 0.392254 -78.7442
165 1 6 0.0000 14.025101 0.0962774 -76.9201
166 1 1 1.0000 15.7325 -1.4228299 -75.6995
167 1 12 0.0000 8.66605 -0.580873 -78.0998
168 1 14 0.0000 6.96505 -2.67503 -76.6762
169 1 14 0.0000 4.72552 -3.82485 -75.0626
170 1 15 0.0000 6.47294 -5.1138 -76.1758
171 1 2 0.0000 6.3183804 0.55011296 -79.9818
172 1 8 0.0000 4.02983 -1.28072 -79.0647
173 1 7 0.0000 7.02193 -0.27438802 -83.116104
174 1 6 0.0000 9.24316 -1.07145 -84.9784
175 1 12 0.0000 9.209 3.43154 -83.0168
176 1 2 0.0000 6.51135 4.56449 -80.9214
177 1 16 0.0000 6.9335003 6.11874 -79.159004
178 1 2 0.0000 5.0323896 7.1405897 -83.663704
179 1 6 0.0000 6.8984504 4.90744 -85.74271
180 1 1 1.0000 6.5028 2.47551 -87.5653
181 1 2 0.0000 2.97049 9.36784 -83.1887
182 1 13 0.0000 1.4038501 8.48915 -86.953896
183 1 2 0.0000 2.39786 11.3195 -80.6273
184 1 8 0.0000 0.486079 14.1371 -80.564896
185 1 2 0.0000 3.83299 10.791 -77.7499
186 1 10 0.0000 2.8768399 13.2275 -75.8875
187 1 10 0.0000 3.4746501 15.9554 -74.8133
188 1 10 0.0000 1.22414 15.209301 -75.8809
189 1 11 0.0000 7.3042397 10.616699 -77.022
190 1 2 0.0000 9.46696 9.77945 -73.5094
191 1 2 0.0000 11.3739 8.288401 -70.9133
192 1 8 0.0000 12.7991 10.4626 -69.6869
193 1 2 0.0000 12.119101 5.28611 -68.4332
194 1 6 0.0000 14.812699 4.63452 -69.6745
195 1 1 1.0000 17.0602 3.92043 -68.7017
196 1 2 0.0000 15.3897 1.2784 -66.1065
197 1 6 0.0000 17.717001 2.39347 -63.640297
198 1 1 1.0000 17.8165 4.09921 -61.3872
199 1 4 0.0000 14.1931 -1.0928 -63.8655
200 1 6 0.0000 11.676101 -3.58722 -62.4407
201 1 1 1.0000 8.83644 -4.52649 -61.9726
202 1 4 0.0000 12.9029 0.85334706 -61.7809
203 1 16 0.0000 12.0114 0.525378 -59.5463
204 1 4 0.0000 12.2339 3.2102299 -63.7222
205 1 3 -1.0000 15.005199 5.89998 -64.698
206 1 4 0.0000 10.2116 1.14651 -65.8611
207 1 7 0.0000 12.0146 -1.30285 -68.0055
208 1 1 1.0000 13.4965 -3.75424 -69.9339
209 1 7 0.0000 8.69287 -0.10926901 -63.713104
210 1 3 -1.0000 6.6104198 -0.997954 -59.9284
211 1 7 0.0000 7.00876 2.5911303 -62.4264
212 1 3 -1.0000 6.3368998 -0.363355 -60.1056
213 1 7 0.0000 5.42698 2.9555402 -65.228
214 1 8 0.0000 7.1976 5.8990297 -65.562805
215 1 7 0.0000 4.0770097 0.103055 -65.166504
216 1 8 0.0000 4.98096 -2.5491 -65.0515
217 1 13 0.0000 2.41506 0.761989 -62.3647
218 1 7 0.0000 0.88831794 3.08197 -63.800903
219 1 14 0.0000 1.3567101 5.5136003 -65.4629
220 1 14 0.0000 2.39706 5.9508505 -67.8264
221 1 15 0.0000 0.308364 7.49883 -66.5349
222 1 7 0.0000 -0.635109 0.930216 -65.887
223 1 8 0.0000 0.355809 -2.00224 -67.1706
224 1 7 0.0000 -1.89182 -0.94819003 -63.2262
225 1 6 0.0000 0.823184 -3.5422997 -62.0845
226 1 1 1.0000 3.77156 -4.05806 -60.904396
227 1 9 0.0000 -3.14276 1.38941 -61.9205
228 1 6 0.0000 -2.49824 1.6773701 -58.748497
229 1 1 1.0000 -4.1603403 1.75879 -56.262497
230 1 7 0.0000 -5.5616703 2.12194 -64.194
231 1 9 0.0000 -7.03689 -0.875611 -64.104
232 1 16 0.0000 -8.61091 -1.42448 -66.163704
233 1 9 0.0000 -7.7053 -0.859446 -61.0392
234 1 2 0.0000 -5.4028797 -2.67735 -59.099598
235 1 3 -1.0000 -7.26736 2.6800501 -60.135498
236 1 3 -1.0000 -8.29672 4.49752 -57.813904

Bonds

1 1 1 2
2 1 31 33
3 1 33 34
4 1 34 36
5 1 36 38
6 1 38 42
7 1 42 44
8 1 44 46
9 1 46 48
10 1 48 51
11 1 51 52
12 1 52 53
13 1 53 56
14 1 56 60
15 1 60 63
16 1 63 65
17 1 65 66
18 1 66 68
19 1 68 70
20 1 70 72
21 1 72 76
22 1 76 77
23 1 77 79
24 1 79 83
25 1 83 84
26 1 84 87
27 1 87 90
28 1 90 92
29 1 92 93
30 1 93 95
31 1 95 96
32 1 96 98
33 1 98 99
34 1 99 103
35 1 103 105
36 1 105 109
37 1 121 124
38 1 124 125
39 1 125 127
40 1 127 129
41 1 129 134
42 1 153 155
43 1 155 157
44 1 171 173
45 1 173 175
46 1 175 176
47 1 176 178
48 1 178 181
49 1 181 183
50 1 183 185
51 1 185 189
52 1 189 190
53 1 190 191
54 1 191 193
55 1 193 196
56 2 2 3
57 3 6 7
58 4 8 9
59 5 9 10
60 4 12 13
61 5 13 14
62 4 15 16
63 5 16 17
64 6 20 21
65 3 26 27
66 4 28 29
67 5 29 30
68 6 31 32
69 3 34 35
70 6 36 37
71 2 38 39
72 3 46 47
73 4 48 49
74 5 49 50
75 4 53 54
76 5 54 55
77 2 56 57
78 4 60 61
79 5 61 62
80 7 66 67
81 8 68 69
82 9 70 71
83 2 72 73
84 9 77 78
85 6 79 80
86 4 84 85
87 10 85 86
88 4 87 88
89 5 88 89
90 3 93 94
91 7 96 97
92 6 99 100
93 8 105 106
94 2 111 112
95 8 114 115
96 4 116 117
97 5 117 118
98 8 119 120
99 4 121 122
100 5 122 123
101 11 129 130
102 4 134 135
103 5 135 136
104 3 137 138
105 3 139 140
106 9 143 144
107 12 145 146
108 3 147 148
109 8 149 150
110 9 153 154
111 3 155 156
112 8 157 158
113 7 159 160
114 4 161 162
115 5 162 163
116 4 164 165
117 5 165 166
118 8 167 168
119 7 173 174
120 4 178 179
121 5 179 180
122 12 181 182
123 6 185 186
124 4 193 194
125 5 194 195
126 4 196 197
127 5 197 198
128 4 199 200
129 5 200 201
130 3 204 205
131 4 206 207
132 10 207 208
133 3 209 210
134 2 211 212
135 9 213 214
136 8 218 219
137 9 222 223
138 4 224 225
139 5 225 226
140 4 227 228
141 5 228 229
142 8 233 234
143 3 235 236
144 13 2 4
145 14 4 6
146 14 6 8
147 14 8 11
148 14 11 12
149 14 12 15
150 14 15 18
151 14 18 20
152 14 20 24
153 14 24 26
154 14 26 28
155 13 28 31
156 13 109 111
157 14 111 113
158 14 113 114
159 14 114 116
160 14 116 119
161 13 119 121
162 13 134 137
163 14 137 139
164 14 139 141
165 14 141 143
166 14 143 145
167 14 145 147
168 14 147 149
169 13 149 153
170 13 157 159
171 14 159 161
172 14 161 164
173 14 164 167
174 13 167 171
175 13 196 199
176 14 199 202
177 14 202 204
178 14 204 206
179 14 206 209
180 14 209 211
181 14 211 213
182 14 213 215
183 14 215 217
184 14 217 218
185 14 218 222
186 14 222 224
187 14 224 227
188 14 227 230
189 14 230 231
190 14 231 233
191 13 233 235
192 15 4 5
193 14 18 19
194 16 21 22
195 16 21 23
196 16 22 23
197 15 24 25
198 16 39 40
199 16 39 41
200 16 40 41
201 17 42 43
202 15 44 45
203 16 57 58
204 16 57 59
205 16 58 59
206 17 63 64
207 16 73 74
208 16 73 75
209 16 74 75
210 16 80 81
211 16 80 82
212 16 81 82
213 17 90 91
214 16 100 101
215 16 100 102
216 16 101 102
217 17 103 104
218 16 106 107
219 16 106 108
220 16 107 108
221 17 109 110
222 14 125 126
223 17 127 128
224 16 130 131
225 16 130 132
226 16 131 132
227 16 131 133
228 16 132 133
229 17 141 142
230 16 150 151
231 16 150 152
232 16 151 152
233 16 168 169
234 16 168 170
235 16 169 170
236 14 171 172
237 17 176 177
238 14 183 184
239 16 186 187
240 16 186 188
241 16 187 188
242 14 191 192
243 17 202 203
244 14 215 216
245 16 219 220
246 16 219 221
247 16 220 221
248 17 231 232

Angles

1 1 1 2 4
2 1 2 4 6
3 2 4 6 8
4 2 6 8 11
5 2 8 11 12
6 2 11 12 15
7 2 12 15 18
8 2 15 18 20
9 2 18 20 24
10 2 20 24 26
11 2 24 26 28
12 3 26 28 31
13 3 28 31 33
14 3 31 33 34
15 3 33 34 36
16 3 34 36 38
17 3 36 38 42
18 1 38 42 44
19 1 42 44 46
20 3 44 46 48
21 3 46 48 51
22 3 48 51 52
23 3 51 52 53
24 1 52 53 56
25 1 53 56 60
26 1 56 60 63
27 1 60 63 65
28 4 63 65 66
29 1 65 66 68
30 1 66 68 70
31 3 68 70 72
32 3 70 72 76
33 3 72 76 77
34 3 76 77 79
35 3 77 79 83
36 3 79 83 84
37 3 83 84 87
38 3 84 87 90
39 3 87 90 92
40 3 90 92 93
41 3 92 93 95
42 1 93 95 96
43 3 95 96 98
44 3 96 98 99
45 3 98 99 103
46 1 99 103 105
47 1 103 105 109
48 1 105 109 111
49 1 109 111 113
50 2 111 113 114
51 2 113 114 116
52 2 114 116 119
53 1 116 119 121
54 1 119 121 124
55 1 121 124 125
56 1 124 125 127
57 1 125 127 129
58 1 127 129 134
59 1 129 134 137
60 4 134 137 139
61 2 137 139 141
62 2 139 141 143
63 2 141 143 145
64 2 143 145 147
65 2 145 147 149
66 3 147 149 153
67 3 149 153 155
68 3 153 155 157
69 3 155 157 159
70 5 157 159 161
71 5 159 161 164
72 2 161 164 167
73 4 164 167 171
74 4 167 171 173
75 3 171 173 175
76 3 173 175 176
77 3 175 176 178
78 1 176 178 181
79 1 178 181 183
80 1 181 183 185
81 1 183 185 189
82 1 185 189 190
83 1 189 190 191
84 1 190 191 193
85 1 191 193 196
86 1 193 196 199
87 4 196 199 202
88 2 199 202 204
89 2 202 204 206
90 2 204 206 209
91 2 206 209 211
92 2 209 211 213
93 2 211 213 215
94 2 213 215 217
95 2 215 217 218
96 2 217 218 222
97 2 218 222 224
98 2 222 224 227
99 2 224 227 230
100 2 227 230 231
101 2 230 231 233
102 1 231 233 235
103 6 1 2 3
104 6 2 4 5
105 6 4 6 7
106 6 6 8 9
107 6 11 12 13
108 6 12 15 16
109 6 15 18 19
110 6 18 20 21
111 6 20 24 25
112 6 24 26 27
113 6 26 28 29
114 6 28 31 32
115 6 33 34 35
116 6 34 36 37
117 6 36 38 39
118 6 38 42 43
119 6 42 44 45
120 6 44 46 47
121 6 46 48 49
122 6 52 53 54
123 6 53 56 57
124 6 56 60 61
125 6 60 63 64
126 6 65 66 67
127 6 66 68 69
128 6 68 70 71
129 6 70 72 73
130 6 76 77 78
131 6 77 79 80
132 6 83 84 85
133 6 84 87 88
134 6 87 90 91
135 6 92 93 94
136 6 95 96 97
137 6 98 99 100
138 6 99 103 104
139 6 103 105 106
140 6 105 109 110
141 6 109 111 112
142 6 113 114 115
143 6 114 116 117
144 6 116 119 120
145 6 119 121 122
146 6 124 125 126
147 6 125 127 128
148 6 127 129 130
149 6 129 134 135
150 6 134 137 138
151 6 137 139 140
152 6 139 141 142
153 6 141 143 144
154 6 143 145 146
155 6 145 147 148
156 6 147 149 150
157 6 149 153 154
158 6 153 155 156
159 6 155 157 158
160 6 157 159 160
161 6 159 161 162
162 6 161 164 165
163 6 164 167 168
164 6 167 171 172
165 6 171 173 174
166 6 175 176 177
167 6 176 178 179
168 6 178 181 182
169 6 181 183 184
170 6 183 185 186
171 6 190 191 192
172 6 191 193 194
173 6 193 196 197
174 6 196 199 200
175 6 199 202 203
176 6 202 204 205
177 6 204 206 207
178 6 206 209 210
179 6 209 211 212
180 6 211 213 214
181 6 213 215 216
182 6 217 218 219
183 6 218 222 223
184 6 222 224 225
185 6 224 227 228
186 6 230 231 232
187 6 231 233 234
188 6 233 235 236
189 7 8 9 10
190 7 12 13 14
191 7 15 16 17
192 8 20 21 22
193 8 20 21 23
194 7 28 29 30
195 8 38 39 40
196 8 38 39 41
197 7 48 49 50
198 7 53 54 55
199 8 56 57 58
200 8 56 57 59
201 7 60 61 62
202 8 72 73 74
203 8 72 73 75
204 8 79 80 81
205 8 79 80 82
206 7 84 85 86
207 7 87 88 89
208 8 99 100 101
209 8 99 100 102
210 8 105 106 107
211 8 105 106 108
212 7 116 117 118
213 7 121 122 123
214 9 129 130 131
215 10 129 130 132
216 7 134 135 136
217 8 149 150 151
218 8 149 150 152
219 7 161 162 163
220 7 164 165 166
221 8 167 168 169
222 8 167 168 170
223 7 178 179 180
224 8 185 186 187
225 8 185 186 188
226 7 193 194 195
227 7 196 197 198
228 7 199 200 201
229 7 206 207 208
230 8 218 219 220
231 8 218 219 221
232 7 224 225 226
233 7 227 228 229

Dihedrals

1 1 4 6 8 11
2 1 6 8 11 12
3 1 8 11 12 15
4 1 11 12 15 18
5 1 12 15 18 20
6 1 15 18 20 24
7 1 18 20 24 26
8 1 20 24 26 28
9 1 111 113 114 116
10 1 113 114 116 119
11 1 137 139 141 143
12 1 139 141 143 145
13 1 141 143 145 147
14 1 143 145 147 149
15 1 159 161 164 167
16 1 199 202 204 206
17 1 202 204 206 209
18 1 204 206 209 211
19 1 206 209 211 213
20 1 209 211 213 215
21 1 211 213 215 217
22 1 213 215 217 218
23 1 215 217 218 222
24 1 217 218 222 224
25 1 218 222 224 227
26 1 222 224 227 230
27 1 224 227 230 231
28 1 227 230 231 233

Impropers

1 1 20 22 23 21
2 1 38 40 41 39
3 1 56 58 59 57
4 1 72 74 75 73
5 1 79 81 82 80
6 1 99 101 102 100
7 1 105 107 108 106
8 1 129 131 132 130
9 2 130 131 133 132
10 1 149 151 152 150
11 1 167 169 170 168
12 1 185 187 188 186
13 1 218 220 221 219

