comment

236 atoms
248 bonds
233 angles
28 dihedrals
13 impropers

17 atom types
17 bond types
10 angle types
1 dihedral types
2 improper types

-40.5 40.5 xlo xhi
-40.5 40.5 ylo yhi
-190.0 190.0 zlo zhi

Masses

1 72.0
2 72.0
3 72.0
4 72.0
5 72.0
6 72.0
7 72.0
8 72.0
9 72.0
10 45.0
11 72.0
12 72.0
13 72.0
14 45.0
15 45.0
16 72.0
17 45.0

PairIJ Coeffs

1 1 1.19503 4.699999999999999
1 2 1.3384336 4.699999999999999
1 3 1.3384336 4.699999999999999
1 4 0.956024 4.699999999999999
1 5 0.478012 4.699999999999999
1 6 0.5497137999999999 4.699999999999999
1 7 0.836521 4.699999999999999
1 8 0.478012 4.699999999999999
1 9 1.19503 4.699999999999999
1 10 0.7409186 4.699999999999999
1 11 1.3384336 4.699999999999999
1 12 1.19503 4.699999999999999
1 13 0.7409186 4.699999999999999
1 14 0.6453162 4.699999999999999
1 15 1.19503 4.699999999999999
1 16 1.19503 4.699999999999999
1 17 0.956024 4.699999999999999
2 2 1.3384336 4.699999999999999
2 3 1.3384336 4.699999999999999
2 4 1.19503 4.699999999999999
2 5 0.5497137999999999 4.699999999999999
2 6 0.6453162 4.699999999999999
2 7 0.836521 4.699999999999999
2 8 0.478012 4.699999999999999
2 9 1.19503 4.699999999999999
2 10 0.7409186 4.699999999999999
2 11 1.3384336 4.699999999999999
2 12 1.19503 4.699999999999999
2 13 0.7409186 4.699999999999999
2 14 0.6453162 4.699999999999999
2 15 1.3384336 4.699999999999999
2 16 1.3384336 4.699999999999999
2 17 1.19503 4.699999999999999
3 3 1.19503 4.699999999999999
3 4 1.19503 4.699999999999999
3 5 0.478012 4.699999999999999
3 6 0.5497137999999999 4.699999999999999
3 7 0.836521 4.699999999999999
3 8 0.478012 4.699999999999999
3 9 0.956024 4.699999999999999
3 10 0.7409186 4.699999999999999
3 11 1.3384336 4.699999999999999
3 12 1.19503 4.699999999999999
3 13 0.7409186 4.699999999999999
3 14 0.6453162 4.699999999999999
3 15 1.19503 4.699999999999999
3 16 1.19503 4.699999999999999
3 17 1.19503 4.699999999999999
4 4 0.956024 4.699999999999999
4 5 0.6453162 4.699999999999999
4 6 0.6453162 4.699999999999999
4 7 0.836521 4.699999999999999
4 8 0.6453162 4.699999999999999
4 9 1.075527 4.699999999999999
4 10 0.836521 4.699999999999999
4 11 0.956024 4.699999999999999
4 12 1.075527 4.699999999999999
4 13 0.836521 4.699999999999999
4 14 0.7409186 4.699999999999999
4 15 1.075527 4.699999999999999
4 16 1.075527 4.699999999999999
4 17 0.956024 4.699999999999999
5 5 0.836521 4.699999999999999
5 6 0.836521 4.699999999999999
5 7 0.7409186 4.699999999999999
5 8 0.836521 4.699999999999999
5 9 0.6453162 4.699999999999999
5 10 0.7409186 4.699999999999999
5 11 0.5497137999999999 4.699999999999999
5 12 0.6453162 4.699999999999999
5 13 0.7409186 4.699999999999999
5 14 0.7409186 4.699999999999999
5 15 0.7409186 4.699999999999999
5 16 0.7409186 4.699999999999999
5 17 0.6453162 4.699999999999999
6 6 0.836521 4.699999999999999
6 7 0.836521 4.699999999999999
6 8 0.836521 4.699999999999999
6 9 0.6453162 4.699999999999999
6 10 0.836521 4.699999999999999
6 11 0.6453162 4.699999999999999
6 12 0.6453162 4.699999999999999
6 13 0.836521 4.699999999999999
6 14 0.836521 4.699999999999999
6 15 0.836521 4.699999999999999
6 16 0.836521 4.699999999999999
6 17 0.6453162 4.699999999999999
7 7 0.836521 4.699999999999999
7 8 0.6453162 4.699999999999999
7 9 0.836521 4.699999999999999
7 10 0.836521 4.699999999999999
7 11 0.836521 4.699999999999999
7 12 0.836521 4.699999999999999
7 13 0.836521 4.699999999999999
7 14 0.836521 4.699999999999999
7 15 0.956024 4.699999999999999
7 16 0.956024 4.699999999999999
7 17 0.836521 4.699999999999999
8 8 0.836521 4.699999999999999
8 9 0.6453162 4.699999999999999
8 10 0.7409186 4.699999999999999
8 11 0.478012 4.699999999999999
8 12 0.6453162 4.699999999999999
8 13 0.7409186 4.699999999999999
8 14 0.7409186 4.699999999999999
8 15 0.6453162 4.699999999999999
8 16 0.6453162 4.699999999999999
8 17 0.6453162 4.699999999999999
9 9 0.956024 4.699999999999999
9 10 0.836521 4.699999999999999
9 11 0.956024 4.699999999999999
9 12 1.075527 4.699999999999999
9 13 0.836521 4.699999999999999
9 14 0.7409186 4.699999999999999
9 15 1.075527 4.699999999999999
9 16 1.075527 4.699999999999999
9 17 1.075527 4.699999999999999
10 10 0.62739075 4.3
10 11 0.7409186 4.699999999999999
10 12 0.836521 4.699999999999999
10 13 0.836521 4.699999999999999
10 14 0.62739075 4.3
10 15 0.62739075 4.3
10 16 0.836521 4.699999999999999
10 17 0.62739075 4.3
11 11 1.19503 4.699999999999999
11 12 0.956024 4.699999999999999
11 13 0.7409186 4.699999999999999
11 14 0.6453162 4.699999999999999
11 15 1.075527 4.699999999999999
11 16 1.075527 4.699999999999999
11 17 0.956024 4.699999999999999
12 12 1.075527 4.699999999999999
12 13 0.836521 4.699999999999999
12 14 0.7409186 4.699999999999999
12 15 1.075527 4.699999999999999
12 16 1.075527 4.699999999999999
12 17 1.075527 4.699999999999999
13 13 0.836521 4.699999999999999
13 14 0.836521 4.699999999999999
13 15 0.836521 4.699999999999999
13 16 0.836521 4.699999999999999
13 17 0.836521 4.699999999999999
14 14 0.62739075 4.3
14 15 0.62739075 4.3
14 16 0.836521 4.699999999999999
14 17 0.5556889500000001 4.3
15 15 0.80664525 4.3
15 16 1.075527 4.699999999999999
15 17 0.80664525 4.3
16 16 1.075527 4.699999999999999
16 17 1.075527 4.699999999999999
17 17 0.7170179999999999 4.3

Bond Coeffs

1 1.4937875 3.5
2 8.962725 3.2
3 5.97515 4.0
4 5.97515 3.3000000000000003
5 5.97515 2.8000000000000003
6 8.962725 3.1
7 8.962725 3.0
8 5.97515 3.2
9 8.962725 3.3000000000000003
10 5.97515 3.4000000000000004
11 5.97515 3.0
12 2.987575 4.0
13 11.9503 3.3000000000000003
14 11.9503 3.1
15 11.9503 2.6500000000000004
16 11.9503 2.7
17 11.9503 2.6

Angle Coeffs

1 2.39006 127
2 83.6521 96
3 2.39006 100
4 2.39006 130
5 11.9503 98
6 2.987575 100
7 2.987575 180
8 5.97515 150
9 5.97515 210
10 5.97515 90

Dihedral Coeffs

1 95.6024 1 -120 0

Improper Coeffs

1 5.97515 0
2 23.9006 0

Atoms

1 1 1 1.0000 1.2549999 -0.027 -48.818
2 1 2 0.0000 0.20891899 0.105113 -51.241898
3 1 3 -1.0000 -1.2623 -0.811922 -53.2114
4 1 4 0.0000 1.86624 2.07845 -54.4006
5 1 5 0.0000 3.16542 0.49116 -55.9165
6 1 4 0.0000 1.77517 5.16992 -54.6216
7 1 3 -1.0000 -1.6954701 6.2256002 -55.4355
8 1 4 0.0000 4.66192 5.6890798 -56.3713
9 1 6 0.0000 6.87572 4.15269 -55.0909
10 1 1 1.0000 8.15638 1.41846 -55.9171
11 1 4 0.0000 3.87326 4.51606 -59.394104
12 1 7 0.0000 1.6060901 6.8886204 -59.934803
13 1 6 0.0000 -1.66592 7.00402 -61.0458
14 1 1 1.0000 -3.9353201 6.1879897 -59.770004
15 1 7 0.0000 3.70511 9.45386 -59.109997
16 1 6 0.0000 1.9908 10.8778 -57.164402
17 1 1 1.0000 0.013174 10.4214 -55.234497
18 1 7 0.0000 6.20516 9.20155 -61.230602
19 1 8 0.0000 7.9728503 6.81305 -60.5611
20 1 9 0.0000 4.83115 9.66758 -64.100296
21 1 10 0.0000 5.0856 9.51944 -67.2307
22 1 10 0.0000 4.70989 9.42648 -69.859604
23 1 10 0.0000 7.23915 9.0596 -69.089294
24 1 9 0.0000 3.7476301 13.0088 -63.787
25 1 5 0.0000 1.13834 14.0105 -63.2534
26 1 9 0.0000 6.7169704 14.4879 -63.2304
27 1 11 0.0000 4.7167797 17.4981 -65.3876
28 1 9 0.0000 8.15473 13.5139 -66.0121
29 1 6 0.0000 9.64158 10.686999 -65.4197
30 1 1 1.0000 11.174001 8.50752 -64.1454
31 1 12 0.0000 7.1164203 14.1341 -69.206604
32 1 13 0.0000 8.19574 14.0943 -72.0966
33 1 7 0.0000 3.5617301 14.285801 -69.2233
34 1 12 0.0000 1.3133199 12.7628 -68.1374
35 1 11 0.0000 -1.48656 15.9958 -67.9875
36 1 12 0.0000 -0.402201 12.4179 -71.422104
37 1 13 0.0000 -0.522583 15.7143 -71.2061
38 1 2 0.0000 -0.687315 9.09678 -70.9335
39 1 14 0.0000 1.3339 7.28662 -72.1515
40 1 15 0.0000 3.33972 5.70722 -72.4121
41 1 15 0.0000 3.14909 7.8883896 -73.7468
42 1 2 0.0000 -3.79725 8.08166 -71.0503
43 1 16 0.0000 -4.75956 8.15193 -73.4269
44 1 2 0.0000 -4.24078 6.64892 -67.8711
45 1 5 0.0000 -3.2350001 4.14305 -67.5521
46 1 2 0.0000 -7.27822 6.82246 -65.6545
47 1 3 -1.0000 -5.7451897 9.4361105 -62.8632
48 1 12 0.0000 -10.4151 4.11671 -64.6727
49 1 6 0.0000 -11.7313 3.18951 -62.069702
50 1 1 1.0000 -11.961499 2.12705 -59.2462
51 1 12 0.0000 -12.395901 6.25699 -66.5932
52 1 2 0.0000 -9.10214 8.16151 -67.135
53 1 2 0.0000 -10.3862 11.2341 -65.862595
54 1 6 0.0000 -10.6146 9.60038 -62.8433
55 1 1 1.0000 -9.28138 7.58144 -60.889202
56 1 2 0.0000 -9.48886 12.9991 -70.1617
57 1 14 0.0000 -10.5926 10.2628 -71.701004
58 1 15 0.0000 -9.3023 8.030809 -72.4451
59 1 15 0.0000 -11.8067 7.9285 -71.769
60 1 2 0.0000 -5.69552 13.4505 -71.7451
61 1 6 0.0000 -5.1141796 12.263599 -68.4475
62 1 1 1.0000 -3.4397798 11.6328 -66.3006
63 1 2 0.0000 -3.68673 12.6963 -75.051796
64 1 16 0.0000 -3.8565001 14.8632 -76.4726
65 1 2 0.0000 -0.832999 9.74054 -76.210495
66 1 11 0.0000 -0.18359801 6.28518 -76.9001
67 1 6 0.0000 1.77253 5.8114395 -79.241196
68 1 2 0.0000 -1.45935 4.4791703 -74.4937
69 1 2 0.0000 -4.08984 3.8930101 -76.293
70 1 2 0.0000 -2.5238001 1.6057 -72.0244
71 1 8 0.0000 -0.0165068 2.2916899 -70.2083
72 1 12 0.0000 -5.84302 2.5472302 -73.771805
73 1 14 0.0000 -7.10222 3.86464 -71.3734
74 1 15 0.0000 -9.543341 4.1241403 -70.4142
75 1 15 0.0000 -7.55635 3.1345701 -68.8266
76 1 12 0.0000 -7.48913 -1.08677 -73.0122
77 1 2 0.0000 -5.7887897 -1.70609 -71.083
78 1 8 0.0000 -3.9001899 -1.2978201 -68.344894
79 1 12 0.0000 -5.78896 -5.5240703 -70.2583
80 1 10 0.0000 -4.68754 -5.9645996 -67.1528
81 1 10 0.0000 -4.07685 -5.8819904 -64.529
82 1 10 0.0000 -6.4318504 -7.1499996 -65.265
83 1 12 0.0000 -5.1697803 -7.86254 -72.8254
84 1 2 0.0000 -4.78292 -6.5848203 -76.315796
85 1 7 0.0000 -4.0005903 -4.04002 -75.3723
86 1 1 1.0000 -3.9813101 -1.02293 -76.5521
87 1 2 0.0000 -3.38897 -7.79695 -78.4788
88 1 6 0.0000 -0.860176 -9.07457 -80.6771
89 1 1 1.0000 0.919688 -11.125401 -80.802605
90 1 12 0.0000 -1.87044 -4.24519 -80.0703
91 1 16 0.0000 0.119436994 -3.60744 -78.6514
92 1 12 0.0000 -4.79161 -2.39541 -82.013794
93 1 2 0.0000 -7.5440903 -1.1204801 -79.752594
94 1 11 0.0000 -8.94216 -3.74099 -77.793495
95 1 11 0.0000 -8.73863 1.6803 -77.8093
96 1 7 0.0000 -10.3001 4.44172 -75.8416
97 1 6 0.0000 -12.88 3.1315198 -74.963196
98 1 12 0.0000 -8.290339 6.85365 -77.2755
99 1 2 0.0000 -7.45304 5.21059 -80.2996
100 1 10 0.0000 -7.43567 7.4924097 -82.392395
101 1 10 0.0000 -6.3184 7.36175 -84.699295
102 1 10 0.0000 -6.94063 9.85176 -83.763596
103 1 2 0.0000 -5.18131 3.0482798 -81.524
104 1 16 0.0000 -5.79241 2.64519 -84.242096
105 1 2 0.0000 -2.32615 5.21359 -81.9543
106 1 14 0.0000 -3.2091098 7.6274104 -80.6215
107 1 14 0.0000 -4.84178 9.60286 -79.3256
108 1 15 0.0000 -3.1856399 10.5067005 -81.10269
109 1 2 0.0000 -1.2677001 4.85159 -85.832
110 1 16 0.0000 -2.43386 6.08244 -87.674904
111 1 4 0.0000 1.6685 3.5584102 -85.4097
112 1 3 -1.0000 2.35422 1.8845799 -88.0077
113 1 7 0.0000 2.61273 2.39256 -82.6624
114 1 12 0.0000 -0.332689 0.72081 -81.7154
115 1 2 0.0000 -0.46604902 1.3786299 -78.9639
116 1 12 0.0000 -0.274978 -1.17712 -84.17169
117 1 6 0.0000 -2.15001 -0.695126 -86.648705
118 1 1 1.0000 -2.1145 0.92366505 -89.0193
119 1 9 0.0000 2.60464 -2.8432102 -83.4738
120 1 2 0.0000 4.46197 -2.89768 -86.519806
121 1 2 0.0000 4.72552 -5.15785 -81.6721
122 1 6 0.0000 7.83911 -5.18612 -81.0992
123 1 1 1.0000 10.1832 -5.3238897 -79.2483
124 1 2 0.0000 3.4724 -6.78796 -79.8652
125 1 2 0.0000 2.01455 -7.92217 -77.0404
126 1 8 0.0000 3.3203797 -10.907201 -76.4451
127 1 2 0.0000 -0.191665 -8.450769 -73.961
128 1 16 0.0000 -1.32831 -10.7224 -74.3131
129 1 2 0.0000 -0.26103902 -8.33885 -69.840996
130 1 14 0.0000 -1.0697 -5.2962203 -70.6829
131 1 17 0.0000 -0.402161 -3.15241 -71.6367
132 1 10 0.0000 0.015418501 -5.21959 -73.255
133 1 10 0.0000 0.948815 -2.5314999 -73.7535
134 1 2 0.0000 0.52829397 -8.13474 -66.7323
135 1 6 0.0000 2.7035298 -10.7138 -67.221
136 1 1 1.0000 4.67197 -11.7479 -64.9922
137 1 4 0.0000 2.74511 -6.31812 -65.6269
138 1 3 -1.0000 5.67796 -8.01854 -62.606003
139 1 4 0.0000 5.32798 -7.32575 -67.457596
140 1 3 -1.0000 6.47456 -8.09929 -63.1419
141 1 4 0.0000 4.47529 -6.2865105 -70.4949
142 1 16 0.0000 4.86702 -8.39786 -72.272
143 1 12 0.0000 4.46941 -3.1472 -69.708496
144 1 8 0.0000 4.10538 -0.36020303 -70.0336
145 1 9 0.0000 7.6876597 -3.23349 -68.7162
146 1 13 0.0000 10.1995 -5.2861204 -66.6465
147 1 9 0.0000 9.09526 -3.53057 -71.7463
148 1 3 -1.0000 11.79 -3.92351 -74.6733
149 1 9 0.0000 7.93025 -0.819623 -72.976295
150 1 14 0.0000 5.1585197 1.06867 -74.2742
151 1 14 0.0000 4.05064 2.76806 -76.3174
152 1 15 0.0000 2.7252502 1.4447901 -74.7396
153 1 12 0.0000 9.14706 1.7532501 -71.3801
154 1 8 0.0000 7.0102797 3.22353 -69.5061
155 1 12 0.0000 12.9338 0.935438 -72.3524
156 1 3 -1.0000 16.6483 0.271645 -71.3501
157 1 2 0.0000 12.968 3.25444 -74.2218
158 1 2 0.0000 15.3388 4.49081 -75.6028
159 1 7 0.0000 9.69441 3.4948997 -75.391304
160 1 6 0.0000 7.83005 5.8155203 -73.8901
161 1 12 0.0000 10.823801 3.37733 -78.4456
162 1 6 0.0000 12.3076 6.11263 -79.6308
163 1 1 1.0000 11.5315 8.7380705 -79.6467
164 1 12 0.0000 11.620199 0.19298701 -78.5768
165 1 6 0.0000 14.3112 0.0411198 -77.2661
166 1 1 1.0000 15.903701 -1.3065 -75.627396
167 1 12 0.0000 8.59213 -0.83588 -78.1318
168 1 14 0.0000 6.35913 -3.21694 -76.9698
169 1 14 0.0000 4.34021 -4.20515 -75.2539
170 1 15 0.0000 6.3119 -5.5731897 -75.852295
171 1 2 0.0000 6.16431 -0.102992 -80.6091
172 1 8 0.0000 3.96309 -1.24246 -78.9889
173 1 7 0.0000 7.31038 -0.104066 -83.484406
174 1 6 0.0000 9.90103 -1.50211 -84.1342
175 1 12 0.0000 8.303761 3.7499099 -82.9856
176 1 2 0.0000 6.7597904 5.85837 -81.3319
177 1 16 0.0000 6.5900397 5.9309697 -78.8289
178 1 2 0.0000 4.45555 7.21712 -83.618805
179 1 6 0.0000 6.1199303 5.5518503 -85.7986
180 1 1 1.0000 6.04557 4.66424 -88.2578
181 1 2 0.0000 1.9498899 8.42975 -83.1496
182 1 13 0.0000 2.1013799 8.01611 -87.7849
183 1 2 0.0000 2.0072799 10.736 -80.6401
184 1 8 0.0000 0.21880099 13.6717 -80.0982
185 1 2 0.0000 4.07074 10.8879 -77.367905
186 1 10 0.0000 3.61484 13.9272995 -76.3472
187 1 10 0.0000 3.8487198 15.342199 -74.0869
188 1 10 0.0000 1.44749 15.8467 -75.5092
189 1 11 0.0000 7.24276 10.8536005 -77.0729
190 1 2 0.0000 10.518301 10.181399 -74.605896
191 1 2 0.0000 11.377 7.7656503 -71.2953
192 1 8 0.0000 12.4162 10.0158 -69.6044
193 1 2 0.0000 12.042299 4.86452 -68.6743
194 1 6 0.0000 14.955501 4.6109 -69.8085
195 1 1 1.0000 17.079199 4.2821302 -68.979706
196 1 2 0.0000 15.3159 1.32981 -65.9058
197 1 6 0.0000 17.4464 2.5090199 -63.515
198 1 1 1.0000 17.724 4.11973 -61.4945
199 1 4 0.0000 14.1984 -1.1961601 -63.6512
200 1 6 0.0000 11.4834 -3.7685702 -62.4888
201 1 1 1.0000 9.08638 -4.60359 -61.410797
202 1 4 0.0000 12.8995 0.888332 -61.691097
203 1 16 0.0000 12.0612 0.325261 -59.501602
204 1 4 0.0000 12.0224 3.17984 -63.9152
205 1 3 -1.0000 14.790699 6.06093 -64.9518
206 1 4 0.0000 10.4347 1.44366 -65.6986
207 1 7 0.0000 11.6786 -0.75605 -67.7247
208 1 1 1.0000 13.4894 -3.0398898 -70.0561
209 1 7 0.0000 8.82514 0.0669467 -63.228996
210 1 3 -1.0000 6.91338 -1.33987 -59.197697
211 1 7 0.0000 7.17104 2.42591 -62.091198
212 1 3 -1.0000 6.2976003 -0.89600694 -59.649902
213 1 7 0.0000 5.7687197 3.14337 -64.8202
214 1 8 0.0000 7.50654 6.0366797 -65.6601
215 1 7 0.0000 4.01336 0.26679498 -64.9472
216 1 8 0.0000 5.14357 -2.3050501 -64.7371
217 1 13 0.0000 2.35742 1.31214 -62.2624
218 1 7 0.0000 0.54883903 3.2855499 -63.6126
219 1 14 0.0000 1.32185 5.7721605 -64.8449
220 1 14 0.0000 2.26655 5.9502897 -67.4907
221 1 15 0.0000 0.55528903 8.05844 -66.2358
222 1 7 0.0000 -0.79867804 0.72918 -65.4045
223 1 8 0.0000 0.40199998 -2.2553601 -66.7752
224 1 7 0.0000 -1.6636001 -0.933985 -62.690804
225 1 6 0.0000 0.86237496 -3.2466998 -61.8869
226 1 1 1.0000 3.4235902 -4.1893396 -60.616203
227 1 9 0.0000 -3.3529499 1.38414 -61.2201
228 1 6 0.0000 -2.55357 1.7812 -58.4034
229 1 1 1.0000 -4.18962 2.2852201 -55.807198
230 1 7 0.0000 -5.7454004 2.05463 -63.7004
231 1 9 0.0000 -7.2064695 -0.719345 -63.8447
232 1 16 0.0000 -8.1784 -1.5207701 -66.1305
233 1 9 0.0000 -8.02224 -0.647066 -60.7044
234 1 2 0.0000 -6.7079597 -2.2203999 -58.1214
235 1 3 -1.0000 -7.56445 2.87843 -59.812298
236 1 3 -1.0000 -7.89334 4.62325 -57.3776

Bonds

1 1 1 2
2 1 31 33
3 1 33 34
4 1 34 36
5 1 36 38
6 1 38 42
7 1 42 44
8 1 44 46
9 1 46 48
10 1 48 51
11 1 51 52
12 1 52 53
13 1 53 56
14 1 56 60
15 1 60 63
16 1 63 65
17 1 65 66
18 1 66 68
19 1 68 70
20 1 70 72
21 1 72 76
22 1 76 77
23 1 77 79
24 1 79 83
25 1 83 84
26 1 84 87
27 1 87 90
28 1 90 92
29 1 92 93
30 1 93 95
31 1 95 96
32 1 96 98
33 1 98 99
34 1 99 103
35 1 103 105
36 1 105 109
37 1 121 124
38 1 124 125
39 1 125 127
40 1 127 129
41 1 129 134
42 1 153 155
43 1 155 157
44 1 171 173
45 1 173 175
46 1 175 176
47 1 176 178
48 1 178 181
49 1 181 183
50 1 183 185
51 1 185 189
52 1 189 190
53 1 190 191
54 1 191 193
55 1 193 196
56 2 2 3
57 3 6 7
58 4 8 9
59 5 9 10
60 4 12 13
61 5 13 14
62 4 15 16
63 5 16 17
64 6 20 21
65 3 26 27
66 4 28 29
67 5 29 30
68 6 31 32
69 3 34 35
70 6 36 37
71 2 38 39
72 3 46 47
73 4 48 49
74 5 49 50
75 4 53 54
76 5 54 55
77 2 56 57
78 4 60 61
79 5 61 62
80 7 66 67
81 8 68 69
82 9 70 71
83 2 72 73
84 9 77 78
85 6 79 80
86 4 84 85
87 10 85 86
88 4 87 88
89 5 88 89
90 3 93 94
91 7 96 97
92 6 99 100
93 8 105 106
94 2 111 112
95 8 114 115
96 4 116 117
97 5 117 118
98 8 119 120
99 4 121 122
100 5 122 123
101 11 129 130
102 4 134 135
103 5 135 136
104 3 137 138
105 3 139 140
106 9 143 144
107 12 145 146
108 3 147 148
109 8 149 150
110 9 153 154
111 3 155 156
112 8 157 158
113 7 159 160
114 4 161 162
115 5 162 163
116 4 164 165
117 5 165 166
118 8 167 168
119 7 173 174
120 4 178 179
121 5 179 180
122 12 181 182
123 6 185 186
124 4 193 194
125 5 194 195
126 4 196 197
127 5 197 198
128 4 199 200
129 5 200 201
130 3 204 205
131 4 206 207
132 10 207 208
133 3 209 210
134 2 211 212
135 9 213 214
136 8 218 219
137 9 222 223
138 4 224 225
139 5 225 226
140 4 227 228
141 5 228 229
142 8 233 234
143 3 235 236
144 13 2 4
145 14 4 6
146 14 6 8
147 14 8 11
148 14 11 12
149 14 12 15
150 14 15 18
151 14 18 20
152 14 20 24
153 14 24 26
154 14 26 28
155 13 28 31
156 13 109 111
157 14 111 113
158 14 113 114
159 14 114 116
160 14 116 119
161 13 119 121
162 13 134 137
163 14 137 139
164 14 139 141
165 14 141 143
166 14 143 145
167 14 145 147
168 14 147 149
169 13 149 153
170 13 157 159
171 14 159 161
172 14 161 164
173 14 164 167
174 13 167 171
175 13 196 199
176 14 199 202
177 14 202 204
178 14 204 206
179 14 206 209
180 14 209 211
181 14 211 213
182 14 213 215
183 14 215 217
184 14 217 218
185 14 218 222
186 14 222 224
187 14 224 227
188 14 227 230
189 14 230 231
190 14 231 233
191 13 233 235
192 15 4 5
193 14 18 19
194 16 21 22
195 16 21 23
196 16 22 23
197 15 24 25
198 16 39 40
199 16 39 41
200 16 40 41
201 17 42 43
202 15 44 45
203 16 57 58
204 16 57 59
205 16 58 59
206 17 63 64
207 16 73 74
208 16 73 75
209 16 74 75
210 16 80 81
211 16 80 82
212 16 81 82
213 17 90 91
214 16 100 101
215 16 100 102
216 16 101 102
217 17 103 104
218 16 106 107
219 16 106 108
220 16 107 108
221 17 109 110
222 14 125 126
223 17 127 128
224 16 130 131
225 16 130 132
226 16 131 132
227 16 131 133
228 16 132 133
229 17 141 142
230 16 150 151
231 16 150 152
232 16 151 152
233 16 168 169
234 16 168 170
235 16 169 170
236 14 171 172
237 17 176 177
238 14 183 184
239 16 186 187
240 16 186 188
241 16 187 188
242 14 191 192
243 17 202 203
244 14 215 216
245 16 219 220
246 16 219 221
247 16 220 221
248 17 231 232

Angles

1 1 1 2 4
2 1 2 4 6
3 2 4 6 8
4 2 6 8 11
5 2 8 11 12
6 2 11 12 15
7 2 12 15 18
8 2 15 18 20
9 2 18 20 24
10 2 20 24 26
11 2 24 26 28
12 3 26 28 31
13 3 28 31 33
14 3 31 33 34
15 3 33 34 36
16 3 34 36 38
17 3 36 38 42
18 1 38 42 44
19 1 42 44 46
20 3 44 46 48
21 3 46 48 51
22 3 48 51 52
23 3 51 52 53
24 1 52 53 56
25 1 53 56 60
26 1 56 60 63
27 1 60 63 65
28 4 63 65 66
29 1 65 66 68
30 1 66 68 70
31 3 68 70 72
32 3 70 72 76
33 3 72 76 77
34 3 76 77 79
35 3 77 79 83
36 3 79 83 84
37 3 83 84 87
38 3 84 87 90
39 3 87 90 92
40 3 90 92 93
41 3 92 93 95
42 1 93 95 96
43 3 95 96 98
44 3 96 98 99
45 3 98 99 103
46 1 99 103 105
47 1 103 105 109
48 1 105 109 111
49 1 109 111 113
50 2 111 113 114
51 2 113 114 116
52 2 114 116 119
53 1 116 119 121
54 1 119 121 124
55 1 121 124 125
56 1 124 125 127
57 1 125 127 129
58 1 127 129 134
59 1 129 134 137
60 4 134 137 139
61 2 137 139 141
62 2 139 141 143
63 2 141 143 145
64 2 143 145 147
65 2 145 147 149
66 3 147 149 153
67 3 149 153 155
68 3 153 155 157
69 3 155 157 159
70 5 157 159 161
71 5 159 161 164
72 2 161 164 167
73 4 164 167 171
74 4 167 171 173
75 3 171 173 175
76 3 173 175 176
77 3 175 176 178
78 1 176 178 181
79 1 178 181 183
80 1 181 183 185
81 1 183 185 189
82 1 185 189 190
83 1 189 190 191
84 1 190 191 193
85 1 191 193 196
86 1 193 196 199
87 4 196 199 202
88 2 199 202 204
89 2 202 204 206
90 2 204 206 209
91 2 206 209 211
92 2 209 211 213
93 2 211 213 215
94 2 213 215 217
95 2 215 217 218
96 2 217 218 222
97 2 218 222 224
98 2 222 224 227
99 2 224 227 230
100 2 227 230 231
101 2 230 231 233
102 1 231 233 235
103 6 1 2 3
104 6 2 4 5
105 6 4 6 7
106 6 6 8 9
107 6 11 12 13
108 6 12 15 16
109 6 15 18 19
110 6 18 20 21
111 6 20 24 25
112 6 24 26 27
113 6 26 28 29
114 6 28 31 32
115 6 33 34 35
116 6 34 36 37
117 6 36 38 39
118 6 38 42 43
119 6 42 44 45
120 6 44 46 47
121 6 46 48 49
122 6 52 53 54
123 6 53 56 57
124 6 56 60 61
125 6 60 63 64
126 6 65 66 67
127 6 66 68 69
128 6 68 70 71
129 6 70 72 73
130 6 76 77 78
131 6 77 79 80
132 6 83 84 85
133 6 84 87 88
134 6 87 90 91
135 6 92 93 94
136 6 95 96 97
137 6 98 99 100
138 6 99 103 104
139 6 103 105 106
140 6 105 109 110
141 6 109 111 112
142 6 113 114 115
143 6 114 116 117
144 6 116 119 120
145 6 119 121 122
146 6 124 125 126
147 6 125 127 128
148 6 127 129 130
149 6 129 134 135
150 6 134 137 138
151 6 137 139 140
152 6 139 141 142
153 6 141 143 144
154 6 143 145 146
155 6 145 147 148
156 6 147 149 150
157 6 149 153 154
158 6 153 155 156
159 6 155 157 158
160 6 157 159 160
161 6 159 161 162
162 6 161 164 165
163 6 164 167 168
164 6 167 171 172
165 6 171 173 174
166 6 175 176 177
167 6 176 178 179
168 6 178 181 182
169 6 181 183 184
170 6 183 185 186
171 6 190 191 192
172 6 191 193 194
173 6 193 196 197
174 6 196 199 200
175 6 199 202 203
176 6 202 204 205
177 6 204 206 207
178 6 206 209 210
179 6 209 211 212
180 6 211 213 214
181 6 213 215 216
182 6 217 218 219
183 6 218 222 223
184 6 222 224 225
185 6 224 227 228
186 6 230 231 232
187 6 231 233 234
188 6 233 235 236
189 7 8 9 10
190 7 12 13 14
191 7 15 16 17
192 8 20 21 22
193 8 20 21 23
194 7 28 29 30
195 8 38 39 40
196 8 38 39 41
197 7 48 49 50
198 7 53 54 55
199 8 56 57 58
200 8 56 57 59
201 7 60 61 62
202 8 72 73 74
203 8 72 73 75
204 8 79 80 81
205 8 79 80 82
206 7 84 85 86
207 7 87 88 89
208 8 99 100 101
209 8 99 100 102
210 8 105 106 107
211 8 105 106 108
212 7 116 117 118
213 7 121 122 123
214 9 129 130 131
215 10 129 130 132
216 7 134 135 136
217 8 149 150 151
218 8 149 150 152
219 7 161 162 163
220 7 164 165 166
221 8 167 168 169
222 8 167 168 170
223 7 178 179 180
224 8 185 186 187
225 8 185 186 188
226 7 193 194 195
227 7 196 197 198
228 7 199 200 201
229 7 206 207 208
230 8 218 219 220
231 8 218 219 221
232 7 224 225 226
233 7 227 228 229

Dihedrals

1 1 4 6 8 11
2 1 6 8 11 12
3 1 8 11 12 15
4 1 11 12 15 18
5 1 12 15 18 20
6 1 15 18 20 24
7 1 18 20 24 26
8 1 20 24 26 28
9 1 111 113 114 116
10 1 113 114 116 119
11 1 137 139 141 143
12 1 139 141 143 145
13 1 141 143 145 147
14 1 143 145 147 149
15 1 159 161 164 167
16 1 199 202 204 206
17 1 202 204 206 209
18 1 204 206 209 211
19 1 206 209 211 213
20 1 209 211 213 215
21 1 211 213 215 217
22 1 213 215 217 218
23 1 215 217 218 222
24 1 217 218 222 224
25 1 218 222 224 227
26 1 222 224 227 230
27 1 224 227 230 231
28 1 227 230 231 233

Impropers

1 1 20 22 23 21
2 1 38 40 41 39
3 1 56 58 59 57
4 1 72 74 75 73
5 1 79 81 82 80
6 1 99 101 102 100
7 1 105 107 108 106
8 1 129 131 132 130
9 2 130 131 133 132
10 1 149 151 152 150
11 1 167 169 170 168
12 1 185 187 188 186
13 1 218 220 221 219

