comment

236 atoms
248 bonds
233 angles
28 dihedrals
13 impropers

17 atom types
17 bond types
10 angle types
1 dihedral types
2 improper types

-40.5 40.5 xlo xhi
-40.5 40.5 ylo yhi
-190.0 190.0 zlo zhi

Masses

1 72.0
2 72.0
3 72.0
4 72.0
5 72.0
6 72.0
7 72.0
8 72.0
9 72.0
10 45.0
11 72.0
12 72.0
13 72.0
14 45.0
15 45.0
16 72.0
17 45.0

PairIJ Coeffs

1 1 1.19503 4.699999999999999
1 2 1.3384336 4.699999999999999
1 3 1.3384336 4.699999999999999
1 4 0.956024 4.699999999999999
1 5 0.478012 4.699999999999999
1 6 0.5497137999999999 4.699999999999999
1 7 0.836521 4.699999999999999
1 8 0.478012 4.699999999999999
1 9 1.19503 4.699999999999999
1 10 0.7409186 4.699999999999999
1 11 1.3384336 4.699999999999999
1 12 1.19503 4.699999999999999
1 13 0.7409186 4.699999999999999
1 14 0.6453162 4.699999999999999
1 15 1.19503 4.699999999999999
1 16 1.19503 4.699999999999999
1 17 0.956024 4.699999999999999
2 2 1.3384336 4.699999999999999
2 3 1.3384336 4.699999999999999
2 4 1.19503 4.699999999999999
2 5 0.5497137999999999 4.699999999999999
2 6 0.6453162 4.699999999999999
2 7 0.836521 4.699999999999999
2 8 0.478012 4.699999999999999
2 9 1.19503 4.699999999999999
2 10 0.7409186 4.699999999999999
2 11 1.3384336 4.699999999999999
2 12 1.19503 4.699999999999999
2 13 0.7409186 4.699999999999999
2 14 0.6453162 4.699999999999999
2 15 1.3384336 4.699999999999999
2 16 1.3384336 4.699999999999999
2 17 1.19503 4.699999999999999
3 3 1.19503 4.699999999999999
3 4 1.19503 4.699999999999999
3 5 0.478012 4.699999999999999
3 6 0.5497137999999999 4.699999999999999
3 7 0.836521 4.699999999999999
3 8 0.478012 4.699999999999999
3 9 0.956024 4.699999999999999
3 10 0.7409186 4.699999999999999
3 11 1.3384336 4.699999999999999
3 12 1.19503 4.699999999999999
3 13 0.7409186 4.699999999999999
3 14 0.6453162 4.699999999999999
3 15 1.19503 4.699999999999999
3 16 1.19503 4.699999999999999
3 17 1.19503 4.699999999999999
4 4 0.956024 4.699999999999999
4 5 0.6453162 4.699999999999999
4 6 0.6453162 4.699999999999999
4 7 0.836521 4.699999999999999
4 8 0.6453162 4.699999999999999
4 9 1.075527 4.699999999999999
4 10 0.836521 4.699999999999999
4 11 0.956024 4.699999999999999
4 12 1.075527 4.699999999999999
4 13 0.836521 4.699999999999999
4 14 0.7409186 4.699999999999999
4 15 1.075527 4.699999999999999
4 16 1.075527 4.699999999999999
4 17 0.956024 4.699999999999999
5 5 0.836521 4.699999999999999
5 6 0.836521 4.699999999999999
5 7 0.7409186 4.699999999999999
5 8 0.836521 4.699999999999999
5 9 0.6453162 4.699999999999999
5 10 0.7409186 4.699999999999999
5 11 0.5497137999999999 4.699999999999999
5 12 0.6453162 4.699999999999999
5 13 0.7409186 4.699999999999999
5 14 0.7409186 4.699999999999999
5 15 0.7409186 4.699999999999999
5 16 0.7409186 4.699999999999999
5 17 0.6453162 4.699999999999999
6 6 0.836521 4.699999999999999
6 7 0.836521 4.699999999999999
6 8 0.836521 4.699999999999999
6 9 0.6453162 4.699999999999999
6 10 0.836521 4.699999999999999
6 11 0.6453162 4.699999999999999
6 12 0.6453162 4.699999999999999
6 13 0.836521 4.699999999999999
6 14 0.836521 4.699999999999999
6 15 0.836521 4.699999999999999
6 16 0.836521 4.699999999999999
6 17 0.6453162 4.699999999999999
7 7 0.836521 4.699999999999999
7 8 0.6453162 4.699999999999999
7 9 0.836521 4.699999999999999
7 10 0.836521 4.699999999999999
7 11 0.836521 4.699999999999999
7 12 0.836521 4.699999999999999
7 13 0.836521 4.699999999999999
7 14 0.836521 4.699999999999999
7 15 0.956024 4.699999999999999
7 16 0.956024 4.699999999999999
7 17 0.836521 4.699999999999999
8 8 0.836521 4.699999999999999
8 9 0.6453162 4.699999999999999
8 10 0.7409186 4.699999999999999
8 11 0.478012 4.699999999999999
8 12 0.6453162 4.699999999999999
8 13 0.7409186 4.699999999999999
8 14 0.7409186 4.699999999999999
8 15 0.6453162 4.699999999999999
8 16 0.6453162 4.699999999999999
8 17 0.6453162 4.699999999999999
9 9 0.956024 4.699999999999999
9 10 0.836521 4.699999999999999
9 11 0.956024 4.699999999999999
9 12 1.075527 4.699999999999999
9 13 0.836521 4.699999999999999
9 14 0.7409186 4.699999999999999
9 15 1.075527 4.699999999999999
9 16 1.075527 4.699999999999999
9 17 1.075527 4.699999999999999
10 10 0.62739075 4.3
10 11 0.7409186 4.699999999999999
10 12 0.836521 4.699999999999999
10 13 0.836521 4.699999999999999
10 14 0.62739075 4.3
10 15 0.62739075 4.3
10 16 0.836521 4.699999999999999
10 17 0.62739075 4.3
11 11 1.19503 4.699999999999999
11 12 0.956024 4.699999999999999
11 13 0.7409186 4.699999999999999
11 14 0.6453162 4.699999999999999
11 15 1.075527 4.699999999999999
11 16 1.075527 4.699999999999999
11 17 0.956024 4.699999999999999
12 12 1.075527 4.699999999999999
12 13 0.836521 4.699999999999999
12 14 0.7409186 4.699999999999999
12 15 1.075527 4.699999999999999
12 16 1.075527 4.699999999999999
12 17 1.075527 4.699999999999999
13 13 0.836521 4.699999999999999
13 14 0.836521 4.699999999999999
13 15 0.836521 4.699999999999999
13 16 0.836521 4.699999999999999
13 17 0.836521 4.699999999999999
14 14 0.62739075 4.3
14 15 0.62739075 4.3
14 16 0.836521 4.699999999999999
14 17 0.5556889500000001 4.3
15 15 0.80664525 4.3
15 16 1.075527 4.699999999999999
15 17 0.80664525 4.3
16 16 1.075527 4.699999999999999
16 17 1.075527 4.699999999999999
17 17 0.7170179999999999 4.3

Bond Coeffs

1 1.4937875 3.5
2 8.962725 3.2
3 5.97515 4.0
4 5.97515 3.3000000000000003
5 5.97515 2.8000000000000003
6 8.962725 3.1
7 8.962725 3.0
8 5.97515 3.2
9 8.962725 3.3000000000000003
10 5.97515 3.4000000000000004
11 5.97515 3.0
12 2.987575 4.0
13 11.9503 3.3000000000000003
14 11.9503 3.1
15 11.9503 2.6500000000000004
16 11.9503 2.7
17 11.9503 2.6

Angle Coeffs

1 2.39006 127
2 83.6521 96
3 2.39006 100
4 2.39006 130
5 11.9503 98
6 2.987575 100
7 2.987575 180
8 5.97515 150
9 5.97515 210
10 5.97515 90

Dihedral Coeffs

1 95.6024 1 -120 0

Improper Coeffs

1 5.97515 0
2 23.9006 0

Atoms

1 1 1 1.0000 1.2549999 -0.027 -48.818
2 1 2 0.0000 0.234323 0.060839202 -51.0495
3 1 3 -1.0000 -1.39133 -0.64392203 -53.4267
4 1 4 0.0000 1.87086 2.3294399 -54.388
5 1 5 0.0000 2.5946598 1.25103 -56.745102
6 1 4 0.0000 1.24614 5.3581705 -55.1325
7 1 3 -1.0000 -2.5543 6.4176297 -56.0858
8 1 4 0.0000 4.33599 6.03622 -56.7596
9 1 6 0.0000 6.85777 4.28873 -56.305
10 1 1 1.0000 8.02396 2.61037 -57.0597
11 1 4 0.0000 3.54959 4.81507 -59.900898
12 1 7 0.0000 1.45454 7.27525 -60.531803
13 1 6 0.0000 -1.69653 6.25377 -61.4598
14 1 1 1.0000 -4.33241 6.42039 -60.219402
15 1 7 0.0000 3.61972 9.72771 -59.9159
16 1 6 0.0000 1.85952 11.2491 -57.8895
17 1 1 1.0000 0.119737 10.1845 -56.3485
18 1 7 0.0000 6.10542 9.10401 -62.0052
19 1 8 0.0000 8.283461 7.36341 -60.8498
20 1 9 0.0000 4.7519 9.66637 -64.6409
21 1 10 0.0000 5.2827 9.70783 -67.5954
22 1 10 0.0000 5.34013 9.2171 -70.5084
23 1 10 0.0000 7.43254 9.09319 -68.923805
24 1 9 0.0000 3.71131 12.7042 -63.791
25 1 5 0.0000 1.51258 13.863601 -64.0043
26 1 9 0.0000 6.6119 14.0257 -63.129803
27 1 11 0.0000 5.35959 17.2851 -64.8133
28 1 9 0.0000 8.04775 13.284599 -65.981895
29 1 6 0.0000 9.69137 10.635099 -65.106
30 1 1 1.0000 12.069301 9.38794 -64.7458
31 1 12 0.0000 6.94063 14.5945 -68.784096
32 1 13 0.0000 9.15205 14.254499 -71.171295
33 1 7 0.0000 4.1718097 13.8759 -70.1863
34 1 12 0.0000 1.94379 13.0245 -68.5727
35 1 11 0.0000 -0.71963304 15.952701 -68.451
36 1 12 0.0000 -0.0425116 12.1096 -71.3469
37 1 13 0.0000 -1.36171 14.962999 -71.3968
38 1 2 0.0000 -0.789343 8.50457 -70.9795
39 1 14 0.0000 1.78729 7.44945 -72.5627
40 1 15 0.0000 3.44329 5.4361 -72.866806
41 1 15 0.0000 3.9471302 7.5801096 -74.3672
42 1 2 0.0000 -4.67164 7.6423197 -71.6751
43 1 16 0.0000 -5.1506605 7.85253 -74.062
44 1 2 0.0000 -5.6673098 7.24719 -68.8207
45 1 5 0.0000 -3.71206 6.12653 -67.564
46 1 2 0.0000 -8.03567 6.79397 -65.7446
47 1 3 -1.0000 -5.88825 9.65781 -63.8418
48 1 12 0.0000 -11.335699 3.68624 -64.5559
49 1 6 0.0000 -12.1789 2.7491598 -61.5546
50 1 1 1.0000 -11.859699 2.21154 -58.755
51 1 12 0.0000 -13.0937 5.51497 -67.2467
52 1 2 0.0000 -11.089701 7.95389 -67.608
53 1 2 0.0000 -11.3904 10.9198 -66.2555
54 1 6 0.0000 -10.657901 10.064501 -63.0629
55 1 1 1.0000 -9.44279 7.95865 -61.4106
56 1 2 0.0000 -9.44102 12.1407995 -69.8245
57 1 14 0.0000 -10.324201 9.77335 -71.9225
58 1 15 0.0000 -9.95993 7.2220497 -72.6727
59 1 15 0.0000 -12.4244 8.12653 -72.2697
60 1 2 0.0000 -5.7620697 12.536201 -72.018196
61 1 6 0.0000 -4.4133 11.8894005 -68.8801
62 1 1 1.0000 -3.04639 10.876499 -67.0341
63 1 2 0.0000 -2.97049 12.5079 -75.3741
64 1 16 0.0000 -3.5429401 14.7824 -76.9785
65 1 2 0.0000 -0.518949 10.5347 -76.125
66 1 11 0.0000 -0.110933 7.7745905 -77.080696
67 1 6 0.0000 1.6589799 6.3104496 -79.0059
68 1 2 0.0000 -1.4700501 5.0307603 -75.5412
69 1 2 0.0000 -4.1412 4.1566 -77.3328
70 1 2 0.0000 -2.05891 2.25614 -72.8404
71 1 8 0.0000 -0.33789098 3.3896601 -70.631
72 1 12 0.0000 -5.77107 2.5629601 -74.0412
73 1 14 0.0000 -7.28602 3.13563 -71.4789
74 1 15 0.0000 -9.83912 3.06207 -70.1275
75 1 15 0.0000 -7.60808 2.78864 -68.8996
76 1 12 0.0000 -7.49116 -1.27321 -73.3176
77 1 2 0.0000 -5.88742 -2.52352 -70.321205
78 1 8 0.0000 -4.00844 -0.531096 -68.680504
79 1 12 0.0000 -5.7293396 -5.56503 -70.0209
80 1 10 0.0000 -4.5763 -6.47304 -67.1876
81 1 10 0.0000 -3.4368398 -5.2087097 -65.3093
82 1 10 0.0000 -4.8533697 -8.04734 -64.9945
83 1 12 0.0000 -6.22777 -8.12453 -72.3408
84 1 2 0.0000 -5.80186 -7.5405903 -75.8495
85 1 7 0.0000 -4.02486 -4.57544 -74.9093
86 1 1 1.0000 -3.1436 -1.81357 -75.9019
87 1 2 0.0000 -3.4861202 -7.16352 -79.5843
88 1 6 0.0000 -1.0071 -9.24907 -80.3696
89 1 1 1.0000 0.233897 -10.4463005 -82.0882
90 1 12 0.0000 -1.70894 -4.0818 -80.470505
91 1 16 0.0000 0.4602 -3.9281402 -78.896095
92 1 12 0.0000 -4.565 -3.29565 -82.5166
93 1 2 0.0000 -6.17976 -1.18718 -79.8039
94 1 11 0.0000 -8.6231 -3.18061 -77.4266
95 1 11 0.0000 -8.57666 1.40701 -79.8422
96 1 7 0.0000 -9.99489 3.83052 -77.2443
97 1 6 0.0000 -12.0807 3.32614 -74.9547
98 1 12 0.0000 -8.42724 6.48426 -77.8157
99 1 2 0.0000 -7.33109 5.42609 -81.352394
100 1 10 0.0000 -6.96029 7.93661 -82.8521
101 1 10 0.0000 -5.75347 8.5994 -84.773796
102 1 10 0.0000 -7.1265297 10.6586 -83.7384
103 1 2 0.0000 -4.40866 3.5429 -82.4197
104 1 16 0.0000 -4.85305 1.59025 -84.075806
105 1 2 0.0000 -1.79516 5.17678 -82.3936
106 1 14 0.0000 -2.53983 8.21312 -81.1283
107 1 14 0.0000 -4.3327503 9.16409 -79.5852
108 1 15 0.0000 -2.8526802 10.973801 -81.2892
109 1 2 0.0000 -0.339512 5.09575 -85.7693
110 1 16 0.0000 -1.65592 5.63668 -87.5634
111 1 4 0.0000 1.86115 2.50355 -85.740005
112 1 3 -1.0000 2.9244802 1.12365 -88.172104
113 1 7 0.0000 2.28824 2.0368 -82.553795
114 1 12 0.0000 -0.229003 0.32963902 -81.975296
115 1 2 0.0000 -0.332697 0.781623 -78.7039
116 1 12 0.0000 0.303339 -2.08832 -84.0512
117 1 6 0.0000 -1.63294 -1.04783 -86.6604
118 1 1 1.0000 -1.59303 0.512219 -89.0047
119 1 9 0.0000 2.9505398 -3.02392 -83.1026
120 1 2 0.0000 4.6502104 -4.46162 -85.974304
121 1 2 0.0000 4.8844 -4.95932 -81.1792
122 1 6 0.0000 8.37185 -4.6858797 -80.8936
123 1 1 1.0000 10.348901 -5.17888 -79.2179
124 1 2 0.0000 3.50674 -7.2684 -80.691795
125 1 2 0.0000 2.66309 -8.1438 -77.3199
126 1 8 0.0000 3.6544 -10.8813 -76.3873
127 1 2 0.0000 -0.226928 -7.1976604 -75.2557
128 1 16 0.0000 -1.16284 -9.56761 -75.1037
129 1 2 0.0000 -1.1279299 -8.36166 -70.3004
130 1 14 0.0000 -1.02646 -5.23004 -70.577
131 1 17 0.0000 -0.453116 -2.9432101 -71.2433
132 1 10 0.0000 0.363684 -4.58738 -72.9554
133 1 10 0.0000 0.94900495 -2.20823 -73.5298
134 1 2 0.0000 0.238086 -8.94969 -66.7977
135 1 6 0.0000 1.83425 -11.770101 -65.9328
136 1 1 1.0000 3.86634 -11.329201 -63.6633
137 1 4 0.0000 2.4236999 -6.68382 -66.121895
138 1 3 -1.0000 5.5419497 -7.33674 -62.7697
139 1 4 0.0000 5.12344 -7.51795 -67.6394
140 1 3 -1.0000 6.0975304 -7.5397496 -63.0168
141 1 4 0.0000 4.56218 -6.17898 -70.485504
142 1 16 0.0000 3.65489 -8.20432 -72.0294
143 1 12 0.0000 4.6240897 -2.98267 -69.6101
144 1 8 0.0000 3.4977298 -0.0062116003 -69.9952
145 1 9 0.0000 7.64727 -2.87913 -68.9216
146 1 13 0.0000 9.83526 -6.0047197 -67.2297
147 1 9 0.0000 8.8114605 -3.0564902 -72.030304
148 1 3 -1.0000 11.9158 -3.5720701 -74.8911
149 1 9 0.0000 7.5882697 -0.44418302 -72.9387
150 1 14 0.0000 5.3487597 0.733531 -74.3113
151 1 14 0.0000 4.70023 2.59069 -75.990204
152 1 15 0.0000 2.7524998 1.62709 -74.7007
153 1 12 0.0000 9.43089 1.69658 -71.0751
154 1 8 0.0000 7.2999 3.47033 -69.8701
155 1 12 0.0000 12.0437 1.17301 -72.0526
156 1 3 -1.0000 15.969501 0.425731 -70.8964
157 1 2 0.0000 13.1956005 3.9689002 -74.3224
158 1 2 0.0000 16.430399 3.72862 -73.5979
159 1 7 0.0000 10.205999 4.0166397 -76.069595
160 1 6 0.0000 8.31328 5.14175 -74.446304
161 1 12 0.0000 11.335699 2.9024699 -78.7089
162 1 6 0.0000 13.4112 5.7425804 -78.8864
163 1 1 1.0000 12.4078 8.706759 -78.892204
164 1 12 0.0000 11.9341 -0.113907 -78.0098
165 1 6 0.0000 15.0578 -0.09767719 -77.192
166 1 1 1.0000 15.6922 -0.90996695 -75.146095
167 1 12 0.0000 8.63361 -0.95617104 -77.472
168 1 14 0.0000 6.46044 -3.2150002 -76.6352
169 1 14 0.0000 4.30791 -4.2174 -75.2975
170 1 15 0.0000 6.54221 -5.74799 -76.0144
171 1 2 0.0000 6.76583 -0.083855 -80.1886
172 1 8 0.0000 4.06244 -1.01316 -79.1296
173 1 7 0.0000 7.08068 0.531006 -82.9589
174 1 6 0.0000 7.8808303 -1.3395201 -84.5063
175 1 12 0.0000 8.82565 3.4409401 -82.8374
176 1 2 0.0000 5.99231 4.61763 -80.7994
177 1 16 0.0000 6.58524 6.34447 -78.9788
178 1 2 0.0000 4.2132897 6.78999 -83.8221
179 1 6 0.0000 6.29437 5.52575 -85.9346
180 1 1 1.0000 6.86701 2.90882 -87.1959
181 1 2 0.0000 2.40379 9.565619 -83.014
182 1 13 0.0000 1.8518 9.76515 -87.199295
183 1 2 0.0000 2.59774 11.013499 -80.186005
184 1 8 0.0000 1.56106 13.777699 -80.5591
185 1 2 0.0000 4.9871798 11.1592 -77.5999
186 1 10 0.0000 3.43813 13.552199 -75.9031
187 1 10 0.0000 4.36279 15.6639 -74.6654
188 1 10 0.0000 1.61953 15.411201 -75.1006
189 1 11 0.0000 8.02893 10.2604 -75.6827
190 1 2 0.0000 10.8519 9.503611 -73.534004
191 1 2 0.0000 11.8926 8.17571 -70.4963
192 1 8 0.0000 12.2323 11.3586 -69.4702
193 1 2 0.0000 12.0109 4.75617 -68.5189
194 1 6 0.0000 15.0773 5.22365 -69.0755
195 1 1 1.0000 17.3321 4.3639402 -68.4446
196 1 2 0.0000 15.476101 0.969876 -66.0424
197 1 6 0.0000 17.745201 2.08487 -64.0131
198 1 1 1.0000 17.7349 2.9967701 -61.0033
199 1 4 0.0000 14.3946 -1.1156299 -63.4845
200 1 6 0.0000 11.8426 -3.61761 -62.6567
201 1 1 1.0000 9.05784 -4.4738503 -61.645298
202 1 4 0.0000 13.1187 0.958975 -61.4124
203 1 16 0.0000 11.6735 -0.286263 -59.6772
204 1 4 0.0000 11.9925995 3.08681 -63.7109
205 1 3 -1.0000 15.1777 5.8124204 -64.2478
206 1 4 0.0000 10.4875 1.09137 -65.6545
207 1 7 0.0000 12.030601 -1.24994 -68.0325
208 1 1 1.0000 13.5579 -3.3978798 -70.4775
209 1 7 0.0000 8.65701 -0.288408 -63.6516
210 1 3 -1.0000 6.68505 -1.0358701 -59.671303
211 1 7 0.0000 7.04073 2.24979 -62.449196
212 1 3 -1.0000 6.37013 -0.700984 -59.877
213 1 7 0.0000 5.50322 2.68368 -65.2591
214 1 8 0.0000 6.9207196 5.5750103 -65.6654
215 1 7 0.0000 4.03138 -0.158772 -64.986
216 1 8 0.0000 5.0976095 -3.14484 -64.9872
217 1 13 0.0000 2.45049 0.603222 -62.4405
218 1 7 0.0000 0.590364 2.61657 -63.900497
219 1 14 0.0000 1.05593 5.13581 -65.6406
220 1 14 0.0000 2.6018 5.94761 -67.5838
221 1 15 0.0000 0.63645 7.6151505 -66.287094
222 1 7 0.0000 -0.731811 0.503921 -65.725395
223 1 8 0.0000 0.44879898 -2.55762 -66.655594
224 1 7 0.0000 -2.06004 -1.00384 -63.1698
225 1 6 0.0000 0.347628 -3.76126 -62.2238
226 1 1 1.0000 2.97739 -3.9563 -60.6703
227 1 9 0.0000 -3.20407 1.5757201 -61.8441
228 1 6 0.0000 -2.9166002 1.81093 -58.9389
229 1 1 1.0000 -4.55164 2.1857 -56.3407
230 1 7 0.0000 -4.88196 2.78219 -64.2399
231 1 9 0.0000 -6.9510403 0.18687901 -64.5881
232 1 16 0.0000 -8.57007 -1.11834 -66.329895
233 1 9 0.0000 -8.2134905 0.33808398 -61.5205
234 1 2 0.0000 -6.22072 -1.4273701 -59.2598
235 1 3 -1.0000 -7.72932 3.4338 -60.4559
236 1 3 -1.0000 -8.2078495 5.2374 -57.8463

Bonds

1 1 1 2
2 1 31 33
3 1 33 34
4 1 34 36
5 1 36 38
6 1 38 42
7 1 42 44
8 1 44 46
9 1 46 48
10 1 48 51
11 1 51 52
12 1 52 53
13 1 53 56
14 1 56 60
15 1 60 63
16 1 63 65
17 1 65 66
18 1 66 68
19 1 68 70
20 1 70 72
21 1 72 76
22 1 76 77
23 1 77 79
24 1 79 83
25 1 83 84
26 1 84 87
27 1 87 90
28 1 90 92
29 1 92 93
30 1 93 95
31 1 95 96
32 1 96 98
33 1 98 99
34 1 99 103
35 1 103 105
36 1 105 109
37 1 121 124
38 1 124 125
39 1 125 127
40 1 127 129
41 1 129 134
42 1 153 155
43 1 155 157
44 1 171 173
45 1 173 175
46 1 175 176
47 1 176 178
48 1 178 181
49 1 181 183
50 1 183 185
51 1 185 189
52 1 189 190
53 1 190 191
54 1 191 193
55 1 193 196
56 2 2 3
57 3 6 7
58 4 8 9
59 5 9 10
60 4 12 13
61 5 13 14
62 4 15 16
63 5 16 17
64 6 20 21
65 3 26 27
66 4 28 29
67 5 29 30
68 6 31 32
69 3 34 35
70 6 36 37
71 2 38 39
72 3 46 47
73 4 48 49
74 5 49 50
75 4 53 54
76 5 54 55
77 2 56 57
78 4 60 61
79 5 61 62
80 7 66 67
81 8 68 69
82 9 70 71
83 2 72 73
84 9 77 78
85 6 79 80
86 4 84 85
87 10 85 86
88 4 87 88
89 5 88 89
90 3 93 94
91 7 96 97
92 6 99 100
93 8 105 106
94 2 111 112
95 8 114 115
96 4 116 117
97 5 117 118
98 8 119 120
99 4 121 122
100 5 122 123
101 11 129 130
102 4 134 135
103 5 135 136
104 3 137 138
105 3 139 140
106 9 143 144
107 12 145 146
108 3 147 148
109 8 149 150
110 9 153 154
111 3 155 156
112 8 157 158
113 7 159 160
114 4 161 162
115 5 162 163
116 4 164 165
117 5 165 166
118 8 167 168
119 7 173 174
120 4 178 179
121 5 179 180
122 12 181 182
123 6 185 186
124 4 193 194
125 5 194 195
126 4 196 197
127 5 197 198
128 4 199 200
129 5 200 201
130 3 204 205
131 4 206 207
132 10 207 208
133 3 209 210
134 2 211 212
135 9 213 214
136 8 218 219
137 9 222 223
138 4 224 225
139 5 225 226
140 4 227 228
141 5 228 229
142 8 233 234
143 3 235 236
144 13 2 4
145 14 4 6
146 14 6 8
147 14 8 11
148 14 11 12
149 14 12 15
150 14 15 18
151 14 18 20
152 14 20 24
153 14 24 26
154 14 26 28
155 13 28 31
156 13 109 111
157 14 111 113
158 14 113 114
159 14 114 116
160 14 116 119
161 13 119 121
162 13 134 137
163 14 137 139
164 14 139 141
165 14 141 143
166 14 143 145
167 14 145 147
168 14 147 149
169 13 149 153
170 13 157 159
171 14 159 161
172 14 161 164
173 14 164 167
174 13 167 171
175 13 196 199
176 14 199 202
177 14 202 204
178 14 204 206
179 14 206 209
180 14 209 211
181 14 211 213
182 14 213 215
183 14 215 217
184 14 217 218
185 14 218 222
186 14 222 224
187 14 224 227
188 14 227 230
189 14 230 231
190 14 231 233
191 13 233 235
192 15 4 5
193 14 18 19
194 16 21 22
195 16 21 23
196 16 22 23
197 15 24 25
198 16 39 40
199 16 39 41
200 16 40 41
201 17 42 43
202 15 44 45
203 16 57 58
204 16 57 59
205 16 58 59
206 17 63 64
207 16 73 74
208 16 73 75
209 16 74 75
210 16 80 81
211 16 80 82
212 16 81 82
213 17 90 91
214 16 100 101
215 16 100 102
216 16 101 102
217 17 103 104
218 16 106 107
219 16 106 108
220 16 107 108
221 17 109 110
222 14 125 126
223 17 127 128
224 16 130 131
225 16 130 132
226 16 131 132
227 16 131 133
228 16 132 133
229 17 141 142
230 16 150 151
231 16 150 152
232 16 151 152
233 16 168 169
234 16 168 170
235 16 169 170
236 14 171 172
237 17 176 177
238 14 183 184
239 16 186 187
240 16 186 188
241 16 187 188
242 14 191 192
243 17 202 203
244 14 215 216
245 16 219 220
246 16 219 221
247 16 220 221
248 17 231 232

Angles

1 1 1 2 4
2 1 2 4 6
3 2 4 6 8
4 2 6 8 11
5 2 8 11 12
6 2 11 12 15
7 2 12 15 18
8 2 15 18 20
9 2 18 20 24
10 2 20 24 26
11 2 24 26 28
12 3 26 28 31
13 3 28 31 33
14 3 31 33 34
15 3 33 34 36
16 3 34 36 38
17 3 36 38 42
18 1 38 42 44
19 1 42 44 46
20 3 44 46 48
21 3 46 48 51
22 3 48 51 52
23 3 51 52 53
24 1 52 53 56
25 1 53 56 60
26 1 56 60 63
27 1 60 63 65
28 4 63 65 66
29 1 65 66 68
30 1 66 68 70
31 3 68 70 72
32 3 70 72 76
33 3 72 76 77
34 3 76 77 79
35 3 77 79 83
36 3 79 83 84
37 3 83 84 87
38 3 84 87 90
39 3 87 90 92
40 3 90 92 93
41 3 92 93 95
42 1 93 95 96
43 3 95 96 98
44 3 96 98 99
45 3 98 99 103
46 1 99 103 105
47 1 103 105 109
48 1 105 109 111
49 1 109 111 113
50 2 111 113 114
51 2 113 114 116
52 2 114 116 119
53 1 116 119 121
54 1 119 121 124
55 1 121 124 125
56 1 124 125 127
57 1 125 127 129
58 1 127 129 134
59 1 129 134 137
60 4 134 137 139
61 2 137 139 141
62 2 139 141 143
63 2 141 143 145
64 2 143 145 147
65 2 145 147 149
66 3 147 149 153
67 3 149 153 155
68 3 153 155 157
69 3 155 157 159
70 5 157 159 161
71 5 159 161 164
72 2 161 164 167
73 4 164 167 171
74 4 167 171 173
75 3 171 173 175
76 3 173 175 176
77 3 175 176 178
78 1 176 178 181
79 1 178 181 183
80 1 181 183 185
81 1 183 185 189
82 1 185 189 190
83 1 189 190 191
84 1 190 191 193
85 1 191 193 196
86 1 193 196 199
87 4 196 199 202
88 2 199 202 204
89 2 202 204 206
90 2 204 206 209
91 2 206 209 211
92 2 209 211 213
93 2 211 213 215
94 2 213 215 217
95 2 215 217 218
96 2 217 218 222
97 2 218 222 224
98 2 222 224 227
99 2 224 227 230
100 2 227 230 231
101 2 230 231 233
102 1 231 233 235
103 6 1 2 3
104 6 2 4 5
105 6 4 6 7
106 6 6 8 9
107 6 11 12 13
108 6 12 15 16
109 6 15 18 19
110 6 18 20 21
111 6 20 24 25
112 6 24 26 27
113 6 26 28 29
114 6 28 31 32
115 6 33 34 35
116 6 34 36 37
117 6 36 38 39
118 6 38 42 43
119 6 42 44 45
120 6 44 46 47
121 6 46 48 49
122 6 52 53 54
123 6 53 56 57
124 6 56 60 61
125 6 60 63 64
126 6 65 66 67
127 6 66 68 69
128 6 68 70 71
129 6 70 72 73
130 6 76 77 78
131 6 77 79 80
132 6 83 84 85
133 6 84 87 88
134 6 87 90 91
135 6 92 93 94
136 6 95 96 97
137 6 98 99 100
138 6 99 103 104
139 6 103 105 106
140 6 105 109 110
141 6 109 111 112
142 6 113 114 115
143 6 114 116 117
144 6 116 119 120
145 6 119 121 122
146 6 124 125 126
147 6 125 127 128
148 6 127 129 130
149 6 129 134 135
150 6 134 137 138
151 6 137 139 140
152 6 139 141 142
153 6 141 143 144
154 6 143 145 146
155 6 145 147 148
156 6 147 149 150
157 6 149 153 154
158 6 153 155 156
159 6 155 157 158
160 6 157 159 160
161 6 159 161 162
162 6 161 164 165
163 6 164 167 168
164 6 167 171 172
165 6 171 173 174
166 6 175 176 177
167 6 176 178 179
168 6 178 181 182
169 6 181 183 184
170 6 183 185 186
171 6 190 191 192
172 6 191 193 194
173 6 193 196 197
174 6 196 199 200
175 6 199 202 203
176 6 202 204 205
177 6 204 206 207
178 6 206 209 210
179 6 209 211 212
180 6 211 213 214
181 6 213 215 216
182 6 217 218 219
183 6 218 222 223
184 6 222 224 225
185 6 224 227 228
186 6 230 231 232
187 6 231 233 234
188 6 233 235 236
189 7 8 9 10
190 7 12 13 14
191 7 15 16 17
192 8 20 21 22
193 8 20 21 23
194 7 28 29 30
195 8 38 39 40
196 8 38 39 41
197 7 48 49 50
198 7 53 54 55
199 8 56 57 58
200 8 56 57 59
201 7 60 61 62
202 8 72 73 74
203 8 72 73 75
204 8 79 80 81
205 8 79 80 82
206 7 84 85 86
207 7 87 88 89
208 8 99 100 101
209 8 99 100 102
210 8 105 106 107
211 8 105 106 108
212 7 116 117 118
213 7 121 122 123
214 9 129 130 131
215 10 129 130 132
216 7 134 135 136
217 8 149 150 151
218 8 149 150 152
219 7 161 162 163
220 7 164 165 166
221 8 167 168 169
222 8 167 168 170
223 7 178 179 180
224 8 185 186 187
225 8 185 186 188
226 7 193 194 195
227 7 196 197 198
228 7 199 200 201
229 7 206 207 208
230 8 218 219 220
231 8 218 219 221
232 7 224 225 226
233 7 227 228 229

Dihedrals

1 1 4 6 8 11
2 1 6 8 11 12
3 1 8 11 12 15
4 1 11 12 15 18
5 1 12 15 18 20
6 1 15 18 20 24
7 1 18 20 24 26
8 1 20 24 26 28
9 1 111 113 114 116
10 1 113 114 116 119
11 1 137 139 141 143
12 1 139 141 143 145
13 1 141 143 145 147
14 1 143 145 147 149
15 1 159 161 164 167
16 1 199 202 204 206
17 1 202 204 206 209
18 1 204 206 209 211
19 1 206 209 211 213
20 1 209 211 213 215
21 1 211 213 215 217
22 1 213 215 217 218
23 1 215 217 218 222
24 1 217 218 222 224
25 1 218 222 224 227
26 1 222 224 227 230
27 1 224 227 230 231
28 1 227 230 231 233

Impropers

1 1 20 22 23 21
2 1 38 40 41 39
3 1 56 58 59 57
4 1 72 74 75 73
5 1 79 81 82 80
6 1 99 101 102 100
7 1 105 107 108 106
8 1 129 131 132 130
9 2 130 131 133 132
10 1 149 151 152 150
11 1 167 169 170 168
12 1 185 187 188 186
13 1 218 220 221 219

