comment

236 atoms
248 bonds
233 angles
28 dihedrals
13 impropers

17 atom types
17 bond types
10 angle types
1 dihedral types
2 improper types

-40.5 40.5 xlo xhi
-40.5 40.5 ylo yhi
-190.0 190.0 zlo zhi

Masses

1 72.0
2 72.0
3 72.0
4 72.0
5 72.0
6 72.0
7 72.0
8 72.0
9 72.0
10 45.0
11 72.0
12 72.0
13 72.0
14 45.0
15 45.0
16 72.0
17 45.0

PairIJ Coeffs

1 1 1.19503 4.699999999999999
1 2 1.3384336 4.699999999999999
1 3 1.3384336 4.699999999999999
1 4 0.956024 4.699999999999999
1 5 0.478012 4.699999999999999
1 6 0.5497137999999999 4.699999999999999
1 7 0.836521 4.699999999999999
1 8 0.478012 4.699999999999999
1 9 1.19503 4.699999999999999
1 10 0.7409186 4.699999999999999
1 11 1.3384336 4.699999999999999
1 12 1.19503 4.699999999999999
1 13 0.7409186 4.699999999999999
1 14 0.6453162 4.699999999999999
1 15 1.19503 4.699999999999999
1 16 1.19503 4.699999999999999
1 17 0.956024 4.699999999999999
2 2 1.3384336 4.699999999999999
2 3 1.3384336 4.699999999999999
2 4 1.19503 4.699999999999999
2 5 0.5497137999999999 4.699999999999999
2 6 0.6453162 4.699999999999999
2 7 0.836521 4.699999999999999
2 8 0.478012 4.699999999999999
2 9 1.19503 4.699999999999999
2 10 0.7409186 4.699999999999999
2 11 1.3384336 4.699999999999999
2 12 1.19503 4.699999999999999
2 13 0.7409186 4.699999999999999
2 14 0.6453162 4.699999999999999
2 15 1.3384336 4.699999999999999
2 16 1.3384336 4.699999999999999
2 17 1.19503 4.699999999999999
3 3 1.19503 4.699999999999999
3 4 1.19503 4.699999999999999
3 5 0.478012 4.699999999999999
3 6 0.5497137999999999 4.699999999999999
3 7 0.836521 4.699999999999999
3 8 0.478012 4.699999999999999
3 9 0.956024 4.699999999999999
3 10 0.7409186 4.699999999999999
3 11 1.3384336 4.699999999999999
3 12 1.19503 4.699999999999999
3 13 0.7409186 4.699999999999999
3 14 0.6453162 4.699999999999999
3 15 1.19503 4.699999999999999
3 16 1.19503 4.699999999999999
3 17 1.19503 4.699999999999999
4 4 0.956024 4.699999999999999
4 5 0.6453162 4.699999999999999
4 6 0.6453162 4.699999999999999
4 7 0.836521 4.699999999999999
4 8 0.6453162 4.699999999999999
4 9 1.075527 4.699999999999999
4 10 0.836521 4.699999999999999
4 11 0.956024 4.699999999999999
4 12 1.075527 4.699999999999999
4 13 0.836521 4.699999999999999
4 14 0.7409186 4.699999999999999
4 15 1.075527 4.699999999999999
4 16 1.075527 4.699999999999999
4 17 0.956024 4.699999999999999
5 5 0.836521 4.699999999999999
5 6 0.836521 4.699999999999999
5 7 0.7409186 4.699999999999999
5 8 0.836521 4.699999999999999
5 9 0.6453162 4.699999999999999
5 10 0.7409186 4.699999999999999
5 11 0.5497137999999999 4.699999999999999
5 12 0.6453162 4.699999999999999
5 13 0.7409186 4.699999999999999
5 14 0.7409186 4.699999999999999
5 15 0.7409186 4.699999999999999
5 16 0.7409186 4.699999999999999
5 17 0.6453162 4.699999999999999
6 6 0.836521 4.699999999999999
6 7 0.836521 4.699999999999999
6 8 0.836521 4.699999999999999
6 9 0.6453162 4.699999999999999
6 10 0.836521 4.699999999999999
6 11 0.6453162 4.699999999999999
6 12 0.6453162 4.699999999999999
6 13 0.836521 4.699999999999999
6 14 0.836521 4.699999999999999
6 15 0.836521 4.699999999999999
6 16 0.836521 4.699999999999999
6 17 0.6453162 4.699999999999999
7 7 0.836521 4.699999999999999
7 8 0.6453162 4.699999999999999
7 9 0.836521 4.699999999999999
7 10 0.836521 4.699999999999999
7 11 0.836521 4.699999999999999
7 12 0.836521 4.699999999999999
7 13 0.836521 4.699999999999999
7 14 0.836521 4.699999999999999
7 15 0.956024 4.699999999999999
7 16 0.956024 4.699999999999999
7 17 0.836521 4.699999999999999
8 8 0.836521 4.699999999999999
8 9 0.6453162 4.699999999999999
8 10 0.7409186 4.699999999999999
8 11 0.478012 4.699999999999999
8 12 0.6453162 4.699999999999999
8 13 0.7409186 4.699999999999999
8 14 0.7409186 4.699999999999999
8 15 0.6453162 4.699999999999999
8 16 0.6453162 4.699999999999999
8 17 0.6453162 4.699999999999999
9 9 0.956024 4.699999999999999
9 10 0.836521 4.699999999999999
9 11 0.956024 4.699999999999999
9 12 1.075527 4.699999999999999
9 13 0.836521 4.699999999999999
9 14 0.7409186 4.699999999999999
9 15 1.075527 4.699999999999999
9 16 1.075527 4.699999999999999
9 17 1.075527 4.699999999999999
10 10 0.62739075 4.3
10 11 0.7409186 4.699999999999999
10 12 0.836521 4.699999999999999
10 13 0.836521 4.699999999999999
10 14 0.62739075 4.3
10 15 0.62739075 4.3
10 16 0.836521 4.699999999999999
10 17 0.62739075 4.3
11 11 1.19503 4.699999999999999
11 12 0.956024 4.699999999999999
11 13 0.7409186 4.699999999999999
11 14 0.6453162 4.699999999999999
11 15 1.075527 4.699999999999999
11 16 1.075527 4.699999999999999
11 17 0.956024 4.699999999999999
12 12 1.075527 4.699999999999999
12 13 0.836521 4.699999999999999
12 14 0.7409186 4.699999999999999
12 15 1.075527 4.699999999999999
12 16 1.075527 4.699999999999999
12 17 1.075527 4.699999999999999
13 13 0.836521 4.699999999999999
13 14 0.836521 4.699999999999999
13 15 0.836521 4.699999999999999
13 16 0.836521 4.699999999999999
13 17 0.836521 4.699999999999999
14 14 0.62739075 4.3
14 15 0.62739075 4.3
14 16 0.836521 4.699999999999999
14 17 0.5556889500000001 4.3
15 15 0.80664525 4.3
15 16 1.075527 4.699999999999999
15 17 0.80664525 4.3
16 16 1.075527 4.699999999999999
16 17 1.075527 4.699999999999999
17 17 0.7170179999999999 4.3

Bond Coeffs

1 1.4937875 3.5
2 8.962725 3.2
3 5.97515 4.0
4 5.97515 3.3000000000000003
5 5.97515 2.8000000000000003
6 8.962725 3.1
7 8.962725 3.0
8 5.97515 3.2
9 8.962725 3.3000000000000003
10 5.97515 3.4000000000000004
11 5.97515 3.0
12 2.987575 4.0
13 11.9503 3.3000000000000003
14 11.9503 3.1
15 11.9503 2.6500000000000004
16 11.9503 2.7
17 11.9503 2.6

Angle Coeffs

1 2.39006 127
2 83.6521 96
3 2.39006 100
4 2.39006 130
5 11.9503 98
6 2.987575 100
7 2.987575 180
8 5.97515 150
9 5.97515 210
10 5.97515 90

Dihedral Coeffs

1 95.6024 1 -120 0

Improper Coeffs

1 5.97515 0
2 23.9006 0

Atoms

1 1 1 1.0000 1.2549999 -0.027 -48.818
2 1 2 0.0000 0.122293994 0.186407 -51.062004
3 1 3 -1.0000 -1.15694 -0.946438 -53.3415
4 1 4 0.0000 1.7980801 2.14008 -54.170498
5 1 5 0.0000 3.24952 0.370411 -55.490196
6 1 4 0.0000 1.7084899 5.27431 -54.632103
7 1 3 -1.0000 -1.80822 5.8421803 -55.9437
8 1 4 0.0000 4.34055 5.8522897 -56.1159
9 1 6 0.0000 6.86331 3.6964602 -55.100197
10 1 1 1.0000 8.01876 2.42744 -56.843903
11 1 4 0.0000 3.75761 4.64402 -59.229004
12 1 7 0.0000 1.504 6.6895504 -60.149597
13 1 6 0.0000 -1.4743 7.09046 -60.7539
14 1 1 1.0000 -4.18771 5.90852 -59.8765
15 1 7 0.0000 3.4706597 9.68505 -59.497498
16 1 6 0.0000 1.8770801 11.0152 -56.9582
17 1 1 1.0000 -0.0293839 10.124399 -55.6218
18 1 7 0.0000 6.01336 9.15068 -61.4665
19 1 8 0.0000 7.94359 7.16998 -60.1812
20 1 9 0.0000 4.73223 9.72572 -64.425804
21 1 10 0.0000 4.89381 9.57705 -67.3874
22 1 10 0.0000 4.55721 9.44085 -70.0139
23 1 10 0.0000 6.91561 9.00683 -69.51
24 1 9 0.0000 3.4932199 12.8481 -63.8946
25 1 5 0.0000 1.38126 14.317301 -63.3946
26 1 9 0.0000 6.45049 14.2562 -63.2938
27 1 11 0.0000 5.33265 17.2157 -65.4681
28 1 9 0.0000 7.9975896 13.155001 -65.8702
29 1 6 0.0000 9.64532 10.7402 -65.4507
30 1 1 1.0000 10.911699 8.72291 -65.2938
31 1 12 0.0000 7.2333198 13.847899 -68.9679
32 1 13 0.0000 8.49301 13.878401 -71.7796
33 1 7 0.0000 3.33891 14.466 -69.291
34 1 12 0.0000 1.22149 12.611099 -68.2574
35 1 11 0.0000 -1.5134 15.847799 -68.0694
36 1 12 0.0000 -0.115133 12.459101 -71.6714
37 1 13 0.0000 -0.327823 15.721999 -71.3389
38 1 2 0.0000 -0.509979 9.10854 -70.8895
39 1 14 0.0000 1.42879 7.2295 -72.2708
40 1 15 0.0000 3.6139398 5.4404597 -72.0673
41 1 15 0.0000 3.51157 7.40287 -74.0567
42 1 2 0.0000 -4.09273 7.1372004 -71.3478
43 1 16 0.0000 -4.69166 8.3510895 -73.486
44 1 2 0.0000 -4.18515 6.6249 -68.4276
45 1 5 0.0000 -3.0203 4.50589 -67.6924
46 1 2 0.0000 -6.63795 6.74978 -65.1977
47 1 3 -1.0000 -5.82222 9.32343 -62.3958
48 1 12 0.0000 -10.732401 4.10453 -64.942795
49 1 6 0.0000 -12.0304 2.9204898 -61.8614
50 1 1 1.0000 -11.6461 1.43757 -59.1978
51 1 12 0.0000 -12.7107 6.20239 -66.7281
52 1 2 0.0000 -9.31491 8.04729 -67.5039
53 1 2 0.0000 -9.59927 10.7279005 -66.1962
54 1 6 0.0000 -10.362901 9.12957 -63.053097
55 1 1 1.0000 -9.54705 7.7378798 -60.6394
56 1 2 0.0000 -9.59773 12.8237 -69.6623
57 1 14 0.0000 -10.657801 10.5931 -71.7629
58 1 15 0.0000 -9.15108 8.471869 -72.3863
59 1 15 0.0000 -11.6473 8.02623 -71.9337
60 1 2 0.0000 -5.57586 13.2266 -71.0034
61 1 6 0.0000 -4.83958 12.195 -68.3273
62 1 1 1.0000 -3.7149599 11.540001 -65.6448
63 1 2 0.0000 -3.53883 12.8043995 -75.3047
64 1 16 0.0000 -3.62201 14.768 -77.098495
65 1 2 0.0000 -1.05582 9.9796095 -76.1101
66 1 11 0.0000 -0.19919701 6.21416 -76.8212
67 1 6 0.0000 1.45717 5.78827 -78.9983
68 1 2 0.0000 -1.22975 3.7876701 -74.8455
69 1 2 0.0000 -4.93354 3.65754 -75.9269
70 1 2 0.0000 -1.90202 1.7463399 -72.2004
71 1 8 0.0000 0.547333 2.26984 -70.0681
72 1 12 0.0000 -5.9081798 2.32195 -73.695595
73 1 14 0.0000 -7.29552 3.34466 -71.3179
74 1 15 0.0000 -9.52273 3.92104 -70.4315
75 1 15 0.0000 -7.38927 3.44635 -68.9936
76 1 12 0.0000 -7.34479 -1.05141 -72.9615
77 1 2 0.0000 -5.0199995 -2.0776699 -71.6196
78 1 8 0.0000 -4.2598 -0.905329 -68.6502
79 1 12 0.0000 -5.70825 -5.73225 -70.157196
80 1 10 0.0000 -4.22019 -6.2575297 -67.268
81 1 10 0.0000 -3.8752298 -5.9476 -64.7785
82 1 10 0.0000 -6.10196 -6.8572598 -65.0355
83 1 12 0.0000 -5.2344 -8.02417 -72.591
84 1 2 0.0000 -4.59322 -6.59719 -75.641396
85 1 7 0.0000 -3.80054 -3.9555902 -75.8321
86 1 1 1.0000 -3.73313 -0.883305 -76.5187
87 1 2 0.0000 -3.50718 -8.02864 -78.9187
88 1 6 0.0000 -0.74146396 -9.29238 -80.20621
89 1 1 1.0000 0.74454004 -11.129 -81.2673
90 1 12 0.0000 -2.3227 -4.31081 -79.9323
91 1 16 0.0000 -0.104182 -4.27347 -78.656906
92 1 12 0.0000 -4.83251 -2.79953 -81.72189
93 1 2 0.0000 -7.44557 -0.527265 -79.9829
94 1 11 0.0000 -8.69503 -3.28303 -77.5351
95 1 11 0.0000 -8.807341 1.9621501 -78.003
96 1 7 0.0000 -10.3331 4.1290197 -75.694
97 1 6 0.0000 -12.9862995 2.77194 -75.3301
98 1 12 0.0000 -8.65812 6.93134 -77.3187
99 1 2 0.0000 -8.02546 5.7381396 -80.745605
100 1 10 0.0000 -7.42962 7.69429 -82.7584
101 1 10 0.0000 -5.8922396 7.51371 -84.6309
102 1 10 0.0000 -7.39042 9.843491 -84.0253
103 1 2 0.0000 -5.20525 3.5516 -81.7007
104 1 16 0.0000 -5.6843605 2.2718902 -84.012
105 1 2 0.0000 -1.65684 5.03906 -82.5401
106 1 14 0.0000 -3.0203102 7.8025103 -81.2206
107 1 14 0.0000 -4.63161 9.23062 -79.7432
108 1 15 0.0000 -3.1124802 10.366 -81.393295
109 1 2 0.0000 -1.19247 4.84323 -85.6565
110 1 16 0.0000 -2.45401 5.89575 -87.7003
111 1 4 0.0000 1.4368 3.02366 -85.6156
112 1 3 -1.0000 2.2044702 1.45302 -88.1311
113 1 7 0.0000 2.56237 2.3599 -82.7919
114 1 12 0.0000 -0.121651 0.665065 -81.8003
115 1 2 0.0000 -0.31016502 0.75335 -78.9815
116 1 12 0.0000 -0.357952 -1.47522 -84.324104
117 1 6 0.0000 -2.42962 -0.52 -86.634705
118 1 1 1.0000 -2.00142 0.93092203 -89.1177
119 1 9 0.0000 2.5219 -2.97656 -83.6341
120 1 2 0.0000 4.16998 -2.62951 -86.8017
121 1 2 0.0000 4.0876703 -5.3906603 -81.9044
122 1 6 0.0000 7.87108 -5.0772 -81.3544
123 1 1 1.0000 9.9683895 -5.55224 -78.8988
124 1 2 0.0000 3.7189002 -7.3980303 -79.5979
125 1 2 0.0000 2.6126502 -8.25004 -76.7595
126 1 8 0.0000 3.42554 -11.0431 -76.5146
127 1 2 0.0000 0.0729277 -8.288811 -74.6354
128 1 16 0.0000 -1.40518 -10.3906 -74.6778
129 1 2 0.0000 -0.734533 -8.38943 -70.4014
130 1 14 0.0000 -0.89309996 -5.20401 -70.6297
131 1 17 0.0000 0.20614101 -2.87014 -71.7497
132 1 10 0.0000 0.139314 -5.07504 -73.313896
133 1 10 0.0000 0.826923 -2.68249 -74.1713
134 1 2 0.0000 0.0697682 -8.20727 -67.0562
135 1 6 0.0000 2.55187 -10.718599 -67.0812
136 1 1 1.0000 3.9664502 -11.395201 -64.6086
137 1 4 0.0000 2.5987802 -6.20158 -66.012505
138 1 3 -1.0000 5.5636196 -7.75039 -62.6174
139 1 4 0.0000 5.15686 -7.50364 -67.4215
140 1 3 -1.0000 6.487 -8.03491 -63.069603
141 1 4 0.0000 4.43882 -6.51191 -70.6418
142 1 16 0.0000 4.97864 -8.43965 -72.3087
143 1 12 0.0000 4.48354 -3.45732 -69.8673
144 1 8 0.0000 4.18667 -0.391887 -69.9676
145 1 9 0.0000 7.59856 -3.1934402 -69.0777
146 1 13 0.0000 10.2004 -5.79008 -66.511795
147 1 9 0.0000 8.81779 -3.43187 -71.6005
148 1 3 -1.0000 11.700601 -4.18643 -74.8266
149 1 9 0.0000 7.8979897 -0.654441 -73.107
150 1 14 0.0000 5.49412 0.972196 -74.4745
151 1 14 0.0000 4.23808 2.6209803 -76.5983
152 1 15 0.0000 2.9933 1.5052301 -74.881905
153 1 12 0.0000 9.24768 1.5444 -71.3482
154 1 8 0.0000 6.97838 3.2642002 -69.8202
155 1 12 0.0000 12.4115 0.951635 -72.3248
156 1 3 -1.0000 16.2958 0.42629302 -71.2215
157 1 2 0.0000 12.8356 3.53227 -74.0982
158 1 2 0.0000 15.164599 4.54114 -75.880196
159 1 7 0.0000 9.73583 3.41185 -75.5904
160 1 6 0.0000 8.12166 5.43621 -74.3314
161 1 12 0.0000 10.837 3.42132 -78.530594
162 1 6 0.0000 12.614201 6.1927004 -79.667
163 1 1 1.0000 11.7284 8.86113 -78.8067
164 1 12 0.0000 11.4119005 0.271855 -78.5666
165 1 6 0.0000 14.091999 -0.00228522 -77.2897
166 1 1 1.0000 15.548 -1.31521 -75.5636
167 1 12 0.0000 8.33096 -0.86422503 -78.1904
168 1 14 0.0000 6.29147 -3.16977 -76.8453
169 1 14 0.0000 4.63838 -3.83093 -74.8876
170 1 15 0.0000 6.30249 -5.3365703 -75.7938
171 1 2 0.0000 6.11615 -0.276681 -80.49989
172 1 8 0.0000 3.81643 -1.5632 -79.3874
173 1 7 0.0000 6.87041 -0.41417402 -83.53461
174 1 6 0.0000 9.52039 -1.2619799 -84.5837
175 1 12 0.0000 8.34793 3.2612898 -83.0865
176 1 2 0.0000 6.0832796 6.10748 -80.7394
177 1 16 0.0000 6.83519 6.12659 -78.9383
178 1 2 0.0000 4.5332 6.72566 -83.9861
179 1 6 0.0000 6.45642 5.291 -85.6868
180 1 1 1.0000 6.3666897 3.0909898 -87.3748
181 1 2 0.0000 1.38215 9.650499 -83.4533
182 1 13 0.0000 1.9540501 8.1707 -87.7406
183 1 2 0.0000 1.72419 11.494499 -80.789604
184 1 8 0.0000 0.258943 13.911099 -80.275406
185 1 2 0.0000 4.06434 11.0480995 -77.442795
186 1 10 0.0000 3.4060903 13.7919 -76.2584
187 1 10 0.0000 3.34309 15.6813 -74.5612
188 1 10 0.0000 1.63976 15.8074 -76.1322
189 1 11 0.0000 7.36005 10.6279 -76.904305
190 1 2 0.0000 10.1546 9.82437 -74.553
191 1 2 0.0000 11.3164 8.16205 -71.368
192 1 8 0.0000 12.4032 10.3985 -69.5052
193 1 2 0.0000 12.058701 5.2813296 -68.7965
194 1 6 0.0000 14.8309 5.11248 -69.6726
195 1 1 1.0000 17.107 4.6033998 -69.1202
196 1 2 0.0000 15.1208 1.25084 -66.2239
197 1 6 0.0000 17.2204 2.42244 -63.545097
198 1 1 1.0000 17.2636 3.85018 -61.596798
199 1 4 0.0000 14.0628 -1.18603 -63.821
200 1 6 0.0000 12.038099 -3.58419 -62.609
201 1 1 1.0000 9.33549 -4.9567 -61.430504
202 1 4 0.0000 13.1431 0.92255104 -61.8395
203 1 16 0.0000 11.865 0.558231 -59.3894
204 1 4 0.0000 11.8434 3.22917 -63.944202
205 1 3 -1.0000 14.7069 6.21907 -64.7432
206 1 4 0.0000 10.1266 1.3312 -65.5814
207 1 7 0.0000 11.508301 -0.77284 -67.7435
208 1 1 1.0000 13.782001 -2.8006802 -69.5827
209 1 7 0.0000 8.84412 -0.0680183 -63.1911
210 1 3 -1.0000 7.0424995 -1.3985001 -59.3388
211 1 7 0.0000 7.22561 2.40885 -62.0475
212 1 3 -1.0000 6.26503 -0.421437 -59.6863
213 1 7 0.0000 5.58991 3.2344298 -64.987404
214 1 8 0.0000 7.54422 5.5738997 -65.661896
215 1 7 0.0000 4.12604 0.58065104 -65.1528
216 1 8 0.0000 5.3727 -2.3190799 -64.909805
217 1 13 0.0000 2.57588 0.976658 -62.270397
218 1 7 0.0000 0.485713 3.21699 -63.614002
219 1 14 0.0000 1.04181 5.6196203 -65.2074
220 1 14 0.0000 2.39833 6.1446295 -67.1978
221 1 15 0.0000 0.401139 7.94648 -66.2914
222 1 7 0.0000 -0.797055 0.692184 -65.5899
223 1 8 0.0000 0.64473397 -2.21685 -66.9453
224 1 7 0.0000 -1.92435 -1.00646 -63.1166
225 1 6 0.0000 0.603668 -3.4250102 -61.8575
226 1 1 1.0000 3.5538101 -4.1146 -60.980602
227 1 9 0.0000 -3.58125 1.51283 -61.642998
228 1 6 0.0000 -2.5145502 1.39432 -58.5215
229 1 1 1.0000 -4.49852 1.64122 -56.2519
230 1 7 0.0000 -5.61178 2.17608 -63.9543
231 1 9 0.0000 -7.08334 -0.79644704 -64.008194
232 1 16 0.0000 -8.07208 -1.63694 -66.1914
233 1 9 0.0000 -8.01814 -0.52849597 -61.0511
234 1 2 0.0000 -5.70445 -2.14147 -59.3117
235 1 3 -1.0000 -7.6265597 2.8155198 -60.1506
236 1 3 -1.0000 -8.11163 4.62726 -57.2426

Bonds

1 1 1 2
2 1 31 33
3 1 33 34
4 1 34 36
5 1 36 38
6 1 38 42
7 1 42 44
8 1 44 46
9 1 46 48
10 1 48 51
11 1 51 52
12 1 52 53
13 1 53 56
14 1 56 60
15 1 60 63
16 1 63 65
17 1 65 66
18 1 66 68
19 1 68 70
20 1 70 72
21 1 72 76
22 1 76 77
23 1 77 79
24 1 79 83
25 1 83 84
26 1 84 87
27 1 87 90
28 1 90 92
29 1 92 93
30 1 93 95
31 1 95 96
32 1 96 98
33 1 98 99
34 1 99 103
35 1 103 105
36 1 105 109
37 1 121 124
38 1 124 125
39 1 125 127
40 1 127 129
41 1 129 134
42 1 153 155
43 1 155 157
44 1 171 173
45 1 173 175
46 1 175 176
47 1 176 178
48 1 178 181
49 1 181 183
50 1 183 185
51 1 185 189
52 1 189 190
53 1 190 191
54 1 191 193
55 1 193 196
56 2 2 3
57 3 6 7
58 4 8 9
59 5 9 10
60 4 12 13
61 5 13 14
62 4 15 16
63 5 16 17
64 6 20 21
65 3 26 27
66 4 28 29
67 5 29 30
68 6 31 32
69 3 34 35
70 6 36 37
71 2 38 39
72 3 46 47
73 4 48 49
74 5 49 50
75 4 53 54
76 5 54 55
77 2 56 57
78 4 60 61
79 5 61 62
80 7 66 67
81 8 68 69
82 9 70 71
83 2 72 73
84 9 77 78
85 6 79 80
86 4 84 85
87 10 85 86
88 4 87 88
89 5 88 89
90 3 93 94
91 7 96 97
92 6 99 100
93 8 105 106
94 2 111 112
95 8 114 115
96 4 116 117
97 5 117 118
98 8 119 120
99 4 121 122
100 5 122 123
101 11 129 130
102 4 134 135
103 5 135 136
104 3 137 138
105 3 139 140
106 9 143 144
107 12 145 146
108 3 147 148
109 8 149 150
110 9 153 154
111 3 155 156
112 8 157 158
113 7 159 160
114 4 161 162
115 5 162 163
116 4 164 165
117 5 165 166
118 8 167 168
119 7 173 174
120 4 178 179
121 5 179 180
122 12 181 182
123 6 185 186
124 4 193 194
125 5 194 195
126 4 196 197
127 5 197 198
128 4 199 200
129 5 200 201
130 3 204 205
131 4 206 207
132 10 207 208
133 3 209 210
134 2 211 212
135 9 213 214
136 8 218 219
137 9 222 223
138 4 224 225
139 5 225 226
140 4 227 228
141 5 228 229
142 8 233 234
143 3 235 236
144 13 2 4
145 14 4 6
146 14 6 8
147 14 8 11
148 14 11 12
149 14 12 15
150 14 15 18
151 14 18 20
152 14 20 24
153 14 24 26
154 14 26 28
155 13 28 31
156 13 109 111
157 14 111 113
158 14 113 114
159 14 114 116
160 14 116 119
161 13 119 121
162 13 134 137
163 14 137 139
164 14 139 141
165 14 141 143
166 14 143 145
167 14 145 147
168 14 147 149
169 13 149 153
170 13 157 159
171 14 159 161
172 14 161 164
173 14 164 167
174 13 167 171
175 13 196 199
176 14 199 202
177 14 202 204
178 14 204 206
179 14 206 209
180 14 209 211
181 14 211 213
182 14 213 215
183 14 215 217
184 14 217 218
185 14 218 222
186 14 222 224
187 14 224 227
188 14 227 230
189 14 230 231
190 14 231 233
191 13 233 235
192 15 4 5
193 14 18 19
194 16 21 22
195 16 21 23
196 16 22 23
197 15 24 25
198 16 39 40
199 16 39 41
200 16 40 41
201 17 42 43
202 15 44 45
203 16 57 58
204 16 57 59
205 16 58 59
206 17 63 64
207 16 73 74
208 16 73 75
209 16 74 75
210 16 80 81
211 16 80 82
212 16 81 82
213 17 90 91
214 16 100 101
215 16 100 102
216 16 101 102
217 17 103 104
218 16 106 107
219 16 106 108
220 16 107 108
221 17 109 110
222 14 125 126
223 17 127 128
224 16 130 131
225 16 130 132
226 16 131 132
227 16 131 133
228 16 132 133
229 17 141 142
230 16 150 151
231 16 150 152
232 16 151 152
233 16 168 169
234 16 168 170
235 16 169 170
236 14 171 172
237 17 176 177
238 14 183 184
239 16 186 187
240 16 186 188
241 16 187 188
242 14 191 192
243 17 202 203
244 14 215 216
245 16 219 220
246 16 219 221
247 16 220 221
248 17 231 232

Angles

1 1 1 2 4
2 1 2 4 6
3 2 4 6 8
4 2 6 8 11
5 2 8 11 12
6 2 11 12 15
7 2 12 15 18
8 2 15 18 20
9 2 18 20 24
10 2 20 24 26
11 2 24 26 28
12 3 26 28 31
13 3 28 31 33
14 3 31 33 34
15 3 33 34 36
16 3 34 36 38
17 3 36 38 42
18 1 38 42 44
19 1 42 44 46
20 3 44 46 48
21 3 46 48 51
22 3 48 51 52
23 3 51 52 53
24 1 52 53 56
25 1 53 56 60
26 1 56 60 63
27 1 60 63 65
28 4 63 65 66
29 1 65 66 68
30 1 66 68 70
31 3 68 70 72
32 3 70 72 76
33 3 72 76 77
34 3 76 77 79
35 3 77 79 83
36 3 79 83 84
37 3 83 84 87
38 3 84 87 90
39 3 87 90 92
40 3 90 92 93
41 3 92 93 95
42 1 93 95 96
43 3 95 96 98
44 3 96 98 99
45 3 98 99 103
46 1 99 103 105
47 1 103 105 109
48 1 105 109 111
49 1 109 111 113
50 2 111 113 114
51 2 113 114 116
52 2 114 116 119
53 1 116 119 121
54 1 119 121 124
55 1 121 124 125
56 1 124 125 127
57 1 125 127 129
58 1 127 129 134
59 1 129 134 137
60 4 134 137 139
61 2 137 139 141
62 2 139 141 143
63 2 141 143 145
64 2 143 145 147
65 2 145 147 149
66 3 147 149 153
67 3 149 153 155
68 3 153 155 157
69 3 155 157 159
70 5 157 159 161
71 5 159 161 164
72 2 161 164 167
73 4 164 167 171
74 4 167 171 173
75 3 171 173 175
76 3 173 175 176
77 3 175 176 178
78 1 176 178 181
79 1 178 181 183
80 1 181 183 185
81 1 183 185 189
82 1 185 189 190
83 1 189 190 191
84 1 190 191 193
85 1 191 193 196
86 1 193 196 199
87 4 196 199 202
88 2 199 202 204
89 2 202 204 206
90 2 204 206 209
91 2 206 209 211
92 2 209 211 213
93 2 211 213 215
94 2 213 215 217
95 2 215 217 218
96 2 217 218 222
97 2 218 222 224
98 2 222 224 227
99 2 224 227 230
100 2 227 230 231
101 2 230 231 233
102 1 231 233 235
103 6 1 2 3
104 6 2 4 5
105 6 4 6 7
106 6 6 8 9
107 6 11 12 13
108 6 12 15 16
109 6 15 18 19
110 6 18 20 21
111 6 20 24 25
112 6 24 26 27
113 6 26 28 29
114 6 28 31 32
115 6 33 34 35
116 6 34 36 37
117 6 36 38 39
118 6 38 42 43
119 6 42 44 45
120 6 44 46 47
121 6 46 48 49
122 6 52 53 54
123 6 53 56 57
124 6 56 60 61
125 6 60 63 64
126 6 65 66 67
127 6 66 68 69
128 6 68 70 71
129 6 70 72 73
130 6 76 77 78
131 6 77 79 80
132 6 83 84 85
133 6 84 87 88
134 6 87 90 91
135 6 92 93 94
136 6 95 96 97
137 6 98 99 100
138 6 99 103 104
139 6 103 105 106
140 6 105 109 110
141 6 109 111 112
142 6 113 114 115
143 6 114 116 117
144 6 116 119 120
145 6 119 121 122
146 6 124 125 126
147 6 125 127 128
148 6 127 129 130
149 6 129 134 135
150 6 134 137 138
151 6 137 139 140
152 6 139 141 142
153 6 141 143 144
154 6 143 145 146
155 6 145 147 148
156 6 147 149 150
157 6 149 153 154
158 6 153 155 156
159 6 155 157 158
160 6 157 159 160
161 6 159 161 162
162 6 161 164 165
163 6 164 167 168
164 6 167 171 172
165 6 171 173 174
166 6 175 176 177
167 6 176 178 179
168 6 178 181 182
169 6 181 183 184
170 6 183 185 186
171 6 190 191 192
172 6 191 193 194
173 6 193 196 197
174 6 196 199 200
175 6 199 202 203
176 6 202 204 205
177 6 204 206 207
178 6 206 209 210
179 6 209 211 212
180 6 211 213 214
181 6 213 215 216
182 6 217 218 219
183 6 218 222 223
184 6 222 224 225
185 6 224 227 228
186 6 230 231 232
187 6 231 233 234
188 6 233 235 236
189 7 8 9 10
190 7 12 13 14
191 7 15 16 17
192 8 20 21 22
193 8 20 21 23
194 7 28 29 30
195 8 38 39 40
196 8 38 39 41
197 7 48 49 50
198 7 53 54 55
199 8 56 57 58
200 8 56 57 59
201 7 60 61 62
202 8 72 73 74
203 8 72 73 75
204 8 79 80 81
205 8 79 80 82
206 7 84 85 86
207 7 87 88 89
208 8 99 100 101
209 8 99 100 102
210 8 105 106 107
211 8 105 106 108
212 7 116 117 118
213 7 121 122 123
214 9 129 130 131
215 10 129 130 132
216 7 134 135 136
217 8 149 150 151
218 8 149 150 152
219 7 161 162 163
220 7 164 165 166
221 8 167 168 169
222 8 167 168 170
223 7 178 179 180
224 8 185 186 187
225 8 185 186 188
226 7 193 194 195
227 7 196 197 198
228 7 199 200 201
229 7 206 207 208
230 8 218 219 220
231 8 218 219 221
232 7 224 225 226
233 7 227 228 229

Dihedrals

1 1 4 6 8 11
2 1 6 8 11 12
3 1 8 11 12 15
4 1 11 12 15 18
5 1 12 15 18 20
6 1 15 18 20 24
7 1 18 20 24 26
8 1 20 24 26 28
9 1 111 113 114 116
10 1 113 114 116 119
11 1 137 139 141 143
12 1 139 141 143 145
13 1 141 143 145 147
14 1 143 145 147 149
15 1 159 161 164 167
16 1 199 202 204 206
17 1 202 204 206 209
18 1 204 206 209 211
19 1 206 209 211 213
20 1 209 211 213 215
21 1 211 213 215 217
22 1 213 215 217 218
23 1 215 217 218 222
24 1 217 218 222 224
25 1 218 222 224 227
26 1 222 224 227 230
27 1 224 227 230 231
28 1 227 230 231 233

Impropers

1 1 20 22 23 21
2 1 38 40 41 39
3 1 56 58 59 57
4 1 72 74 75 73
5 1 79 81 82 80
6 1 99 101 102 100
7 1 105 107 108 106
8 1 129 131 132 130
9 2 130 131 133 132
10 1 149 151 152 150
11 1 167 169 170 168
12 1 185 187 188 186
13 1 218 220 221 219

