comment

236 atoms
248 bonds
233 angles
28 dihedrals
13 impropers

17 atom types
17 bond types
10 angle types
1 dihedral types
2 improper types

-40.5 40.5 xlo xhi
-40.5 40.5 ylo yhi
-190.0 190.0 zlo zhi

Masses

1 72.0
2 72.0
3 72.0
4 72.0
5 72.0
6 72.0
7 72.0
8 72.0
9 72.0
10 45.0
11 72.0
12 72.0
13 72.0
14 45.0
15 45.0
16 72.0
17 45.0

PairIJ Coeffs

1 1 1.19503 4.699999999999999
1 2 1.3384336 4.699999999999999
1 3 1.3384336 4.699999999999999
1 4 0.956024 4.699999999999999
1 5 0.478012 4.699999999999999
1 6 0.5497137999999999 4.699999999999999
1 7 0.836521 4.699999999999999
1 8 0.478012 4.699999999999999
1 9 1.19503 4.699999999999999
1 10 0.7409186 4.699999999999999
1 11 1.3384336 4.699999999999999
1 12 1.19503 4.699999999999999
1 13 0.7409186 4.699999999999999
1 14 0.6453162 4.699999999999999
1 15 1.19503 4.699999999999999
1 16 1.19503 4.699999999999999
1 17 0.956024 4.699999999999999
2 2 1.3384336 4.699999999999999
2 3 1.3384336 4.699999999999999
2 4 1.19503 4.699999999999999
2 5 0.5497137999999999 4.699999999999999
2 6 0.6453162 4.699999999999999
2 7 0.836521 4.699999999999999
2 8 0.478012 4.699999999999999
2 9 1.19503 4.699999999999999
2 10 0.7409186 4.699999999999999
2 11 1.3384336 4.699999999999999
2 12 1.19503 4.699999999999999
2 13 0.7409186 4.699999999999999
2 14 0.6453162 4.699999999999999
2 15 1.3384336 4.699999999999999
2 16 1.3384336 4.699999999999999
2 17 1.19503 4.699999999999999
3 3 1.19503 4.699999999999999
3 4 1.19503 4.699999999999999
3 5 0.478012 4.699999999999999
3 6 0.5497137999999999 4.699999999999999
3 7 0.836521 4.699999999999999
3 8 0.478012 4.699999999999999
3 9 0.956024 4.699999999999999
3 10 0.7409186 4.699999999999999
3 11 1.3384336 4.699999999999999
3 12 1.19503 4.699999999999999
3 13 0.7409186 4.699999999999999
3 14 0.6453162 4.699999999999999
3 15 1.19503 4.699999999999999
3 16 1.19503 4.699999999999999
3 17 1.19503 4.699999999999999
4 4 0.956024 4.699999999999999
4 5 0.6453162 4.699999999999999
4 6 0.6453162 4.699999999999999
4 7 0.836521 4.699999999999999
4 8 0.6453162 4.699999999999999
4 9 1.075527 4.699999999999999
4 10 0.836521 4.699999999999999
4 11 0.956024 4.699999999999999
4 12 1.075527 4.699999999999999
4 13 0.836521 4.699999999999999
4 14 0.7409186 4.699999999999999
4 15 1.075527 4.699999999999999
4 16 1.075527 4.699999999999999
4 17 0.956024 4.699999999999999
5 5 0.836521 4.699999999999999
5 6 0.836521 4.699999999999999
5 7 0.7409186 4.699999999999999
5 8 0.836521 4.699999999999999
5 9 0.6453162 4.699999999999999
5 10 0.7409186 4.699999999999999
5 11 0.5497137999999999 4.699999999999999
5 12 0.6453162 4.699999999999999
5 13 0.7409186 4.699999999999999
5 14 0.7409186 4.699999999999999
5 15 0.7409186 4.699999999999999
5 16 0.7409186 4.699999999999999
5 17 0.6453162 4.699999999999999
6 6 0.836521 4.699999999999999
6 7 0.836521 4.699999999999999
6 8 0.836521 4.699999999999999
6 9 0.6453162 4.699999999999999
6 10 0.836521 4.699999999999999
6 11 0.6453162 4.699999999999999
6 12 0.6453162 4.699999999999999
6 13 0.836521 4.699999999999999
6 14 0.836521 4.699999999999999
6 15 0.836521 4.699999999999999
6 16 0.836521 4.699999999999999
6 17 0.6453162 4.699999999999999
7 7 0.836521 4.699999999999999
7 8 0.6453162 4.699999999999999
7 9 0.836521 4.699999999999999
7 10 0.836521 4.699999999999999
7 11 0.836521 4.699999999999999
7 12 0.836521 4.699999999999999
7 13 0.836521 4.699999999999999
7 14 0.836521 4.699999999999999
7 15 0.956024 4.699999999999999
7 16 0.956024 4.699999999999999
7 17 0.836521 4.699999999999999
8 8 0.836521 4.699999999999999
8 9 0.6453162 4.699999999999999
8 10 0.7409186 4.699999999999999
8 11 0.478012 4.699999999999999
8 12 0.6453162 4.699999999999999
8 13 0.7409186 4.699999999999999
8 14 0.7409186 4.699999999999999
8 15 0.6453162 4.699999999999999
8 16 0.6453162 4.699999999999999
8 17 0.6453162 4.699999999999999
9 9 0.956024 4.699999999999999
9 10 0.836521 4.699999999999999
9 11 0.956024 4.699999999999999
9 12 1.075527 4.699999999999999
9 13 0.836521 4.699999999999999
9 14 0.7409186 4.699999999999999
9 15 1.075527 4.699999999999999
9 16 1.075527 4.699999999999999
9 17 1.075527 4.699999999999999
10 10 0.62739075 4.3
10 11 0.7409186 4.699999999999999
10 12 0.836521 4.699999999999999
10 13 0.836521 4.699999999999999
10 14 0.62739075 4.3
10 15 0.62739075 4.3
10 16 0.836521 4.699999999999999
10 17 0.62739075 4.3
11 11 1.19503 4.699999999999999
11 12 0.956024 4.699999999999999
11 13 0.7409186 4.699999999999999
11 14 0.6453162 4.699999999999999
11 15 1.075527 4.699999999999999
11 16 1.075527 4.699999999999999
11 17 0.956024 4.699999999999999
12 12 1.075527 4.699999999999999
12 13 0.836521 4.699999999999999
12 14 0.7409186 4.699999999999999
12 15 1.075527 4.699999999999999
12 16 1.075527 4.699999999999999
12 17 1.075527 4.699999999999999
13 13 0.836521 4.699999999999999
13 14 0.836521 4.699999999999999
13 15 0.836521 4.699999999999999
13 16 0.836521 4.699999999999999
13 17 0.836521 4.699999999999999
14 14 0.62739075 4.3
14 15 0.62739075 4.3
14 16 0.836521 4.699999999999999
14 17 0.5556889500000001 4.3
15 15 0.80664525 4.3
15 16 1.075527 4.699999999999999
15 17 0.80664525 4.3
16 16 1.075527 4.699999999999999
16 17 1.075527 4.699999999999999
17 17 0.7170179999999999 4.3

Bond Coeffs

1 1.4937875 3.5
2 8.962725 3.2
3 5.97515 4.0
4 5.97515 3.3000000000000003
5 5.97515 2.8000000000000003
6 8.962725 3.1
7 8.962725 3.0
8 5.97515 3.2
9 8.962725 3.3000000000000003
10 5.97515 3.4000000000000004
11 5.97515 3.0
12 2.987575 4.0
13 11.9503 3.3000000000000003
14 11.9503 3.1
15 11.9503 2.6500000000000004
16 11.9503 2.7
17 11.9503 2.6

Angle Coeffs

1 2.39006 127
2 83.6521 96
3 2.39006 100
4 2.39006 130
5 11.9503 98
6 2.987575 100
7 2.987575 180
8 5.97515 150
9 5.97515 210
10 5.97515 90

Dihedral Coeffs

1 95.6024 1 -120 0

Improper Coeffs

1 5.97515 0
2 23.9006 0

Atoms

1 1 1 1.0000 1.2549999 -0.027 -48.818
2 1 2 0.0000 0.0453241 0.143013 -50.8958
3 1 3 -1.0000 -0.85004395 -0.93352497 -53.010803
4 1 4 0.0000 1.8359301 2.11237 -54.328598
5 1 5 0.0000 2.63344 0.206881 -55.7699
6 1 4 0.0000 1.46567 5.13258 -54.7403
7 1 3 -1.0000 -1.90062 6.2124996 -55.9616
8 1 4 0.0000 4.30244 5.8813 -55.759903
9 1 6 0.0000 7.25311 4.31622 -55.4769
10 1 1 1.0000 7.24416 1.59132 -55.967697
11 1 4 0.0000 3.78494 4.71448 -59.0429
12 1 7 0.0000 1.6572701 6.80584 -60.030098
13 1 6 0.0000 -1.62664 6.37686 -61.2535
14 1 1 1.0000 -4.20153 6.3185697 -60.131104
15 1 7 0.0000 3.48537 9.49028 -59.337303
16 1 6 0.0000 2.2095 11.1807 -56.620003
17 1 1 1.0000 0.75013804 9.72688 -54.447598
18 1 7 0.0000 5.9994 8.957359 -61.4628
19 1 8 0.0000 8.53642 7.24577 -60.5618
20 1 9 0.0000 4.40635 9.46734 -64.3264
21 1 10 0.0000 5.02411 9.23028 -67.417206
22 1 10 0.0000 4.39705 9.65435 -70.2127
23 1 10 0.0000 6.86201 8.63212 -69.2641
24 1 9 0.0000 3.4826498 12.668 -63.8147
25 1 5 0.0000 1.68957 14.219399 -64.081505
26 1 9 0.0000 6.36698 13.867199 -63.085598
27 1 11 0.0000 5.8895397 17.3881 -64.7211
28 1 9 0.0000 7.80134 13.063999 -65.9139
29 1 6 0.0000 9.49706 10.145901 -65.4839
30 1 1 1.0000 11.5038 8.89287 -63.828102
31 1 12 0.0000 6.7878003 13.9567995 -69.0059
32 1 13 0.0000 8.95273 14.362299 -71.2017
33 1 7 0.0000 3.69537 14.393701 -68.6266
34 1 12 0.0000 0.94623995 12.4585 -68.3793
35 1 11 0.0000 -1.39309 15.8179 -68.775604
36 1 12 0.0000 -0.101193 12.3064 -71.6891
37 1 13 0.0000 -0.71760803 15.726399 -71.378105
38 1 2 0.0000 -0.472151 9.1821995 -71.5411
39 1 14 0.0000 1.9502499 7.6303797 -72.657196
40 1 15 0.0000 3.64503 5.7374196 -72.5489
41 1 15 0.0000 4.0820103 7.84333 -73.9629
42 1 2 0.0000 -3.36624 7.9273896 -71.6542
43 1 16 0.0000 -4.77851 8.3152 -73.4546
44 1 2 0.0000 -4.65499 6.73455 -68.558304
45 1 5 0.0000 -3.23246 4.85611 -67.8415
46 1 2 0.0000 -6.95638 6.9755 -65.6402
47 1 3 -1.0000 -5.83593 9.94122 -62.7836
48 1 12 0.0000 -10.8606 4.34557 -64.1803
49 1 6 0.0000 -12.010799 2.4605398 -61.5731
50 1 1 1.0000 -11.636 2.22051 -58.560402
51 1 12 0.0000 -13.162399 5.3222504 -66.5178
52 1 2 0.0000 -9.752069 7.71481 -67.3544
53 1 2 0.0000 -10.3019 10.931 -65.9457
54 1 6 0.0000 -10.7743 9.2306795 -62.8267
55 1 1 1.0000 -9.2865095 7.76452 -60.750698
56 1 2 0.0000 -9.06418 13.1304 -70.0275
57 1 14 0.0000 -10.2749 10.584001 -71.937096
58 1 15 0.0000 -9.40537 8.12353 -72.0427
59 1 15 0.0000 -11.9161 8.45938 -71.8713
60 1 2 0.0000 -5.28565 13.214999 -71.8607
61 1 6 0.0000 -4.14646 12.0895 -69.116806
62 1 1 1.0000 -3.7597098 11.419 -66.8327
63 1 2 0.0000 -3.3800302 12.7684 -75.1126
64 1 16 0.0000 -4.3200903 14.8098 -76.6255
65 1 2 0.0000 -0.808516 10.7338 -76.290695
66 1 11 0.0000 0.086747795 7.21649 -76.947296
67 1 6 0.0000 1.37117 6.2620697 -79.1263
68 1 2 0.0000 -1.29775 4.50768 -75.2535
69 1 2 0.0000 -4.34809 4.13109 -76.642
70 1 2 0.0000 -2.12145 2.77128 -72.2129
71 1 8 0.0000 0.279683 2.43682 -70.1649
72 1 12 0.0000 -5.84136 2.75787 -74.178
73 1 14 0.0000 -7.24096 3.72843 -71.4961
74 1 15 0.0000 -9.65395 3.8820002 -70.6868
75 1 15 0.0000 -7.6634197 3.1084702 -68.9566
76 1 12 0.0000 -7.5349703 -1.20761 -73.4243
77 1 2 0.0000 -5.30405 -2.4356 -70.9774
78 1 8 0.0000 -4.09905 -0.462009 -68.7387
79 1 12 0.0000 -5.77092 -5.1483397 -70.116
80 1 10 0.0000 -5.26002 -5.98355 -67.2176
81 1 10 0.0000 -4.14111 -5.12304 -65.1452
82 1 10 0.0000 -6.27005 -6.79941 -64.9657
83 1 12 0.0000 -5.15877 -7.913 -72.8146
84 1 2 0.0000 -4.0735097 -6.44242 -76.3413
85 1 7 0.0000 -3.6911 -3.74205 -75.753395
86 1 1 1.0000 -2.75745 -0.81654 -75.8062
87 1 2 0.0000 -3.246 -7.7916503 -78.725
88 1 6 0.0000 -0.733186 -8.9898405 -80.2716
89 1 1 1.0000 -0.598496 -11.655399 -80.5503
90 1 12 0.0000 -1.8726001 -4.07564 -79.9644
91 1 16 0.0000 0.275141 -3.91068 -78.7666
92 1 12 0.0000 -5.12006 -3.32001 -80.9877
93 1 2 0.0000 -6.51904 -0.680094 -79.0848
94 1 11 0.0000 -8.81929 -3.58781 -77.5283
95 1 11 0.0000 -8.37839 1.5267899 -79.016
96 1 7 0.0000 -10.413099 4.26688 -76.314804
97 1 6 0.0000 -11.957399 2.4942 -74.7264
98 1 12 0.0000 -8.41329 6.8697796 -77.275
99 1 2 0.0000 -8.17169 5.9124703 -80.4991
100 1 10 0.0000 -7.40516 7.5999 -82.9103
101 1 10 0.0000 -5.7452297 7.94987 -84.7991
102 1 10 0.0000 -6.8816605 9.89297 -84.3549
103 1 2 0.0000 -4.58816 3.24052 -81.89941
104 1 16 0.0000 -5.55471 1.8889799 -83.872406
105 1 2 0.0000 -2.11124 5.47286 -82.7304
106 1 14 0.0000 -3.01622 8.50094 -81.217606
107 1 14 0.0000 -4.64475 9.41818 -79.3023
108 1 15 0.0000 -3.65823 11.0404005 -81.3058
109 1 2 0.0000 -1.22895 4.38457 -86.2629
110 1 16 0.0000 -2.0829601 6.06839 -87.923004
111 1 4 0.0000 1.55317 3.16919 -85.8083
112 1 3 -1.0000 2.30792 1.29057 -88.2092
113 1 7 0.0000 2.31275 2.5734801 -82.9766
114 1 12 0.0000 -0.325937 0.76839995 -81.93671
115 1 2 0.0000 -0.0154473 1.5577 -79.0627
116 1 12 0.0000 -0.201851 -1.56309 -84.0029
117 1 6 0.0000 -2.1151 -0.74710304 -86.613396
118 1 1 1.0000 -2.02722 0.308592 -89.0905
119 1 9 0.0000 2.41343 -3.03074 -83.2804
120 1 2 0.0000 3.59979 -3.49632 -86.7842
121 1 2 0.0000 4.8171897 -4.77577 -81.568695
122 1 6 0.0000 8.183681 -4.66895 -81.0264
123 1 1 1.0000 10.3883 -5.09604 -78.846695
124 1 2 0.0000 4.5047 -7.41539 -79.0248
125 1 2 0.0000 2.48931 -8.10734 -76.5693
126 1 8 0.0000 2.52813 -11.219701 -76.5309
127 1 2 0.0000 -0.119885996 -8.71855 -73.3821
128 1 16 0.0000 -1.33543 -10.1976 -74.9784
129 1 2 0.0000 -0.888644 -7.6708503 -69.566696
130 1 14 0.0000 -0.881264 -4.89074 -70.6466
131 1 17 0.0000 -0.09782001 -2.6463602 -71.778595
132 1 10 0.0000 0.37700298 -5.0739503 -73.0942
133 1 10 0.0000 1.10411 -2.66938 -73.9144
134 1 2 0.0000 0.38210198 -8.48089 -66.659996
135 1 6 0.0000 2.9540398 -10.6761 -67.579796
136 1 1 1.0000 4.11585 -11.704901 -65.349495
137 1 4 0.0000 2.68585 -6.3807797 -66.0184
138 1 3 -1.0000 5.14508 -7.42397 -63.0133
139 1 4 0.0000 5.25703 -7.6377897 -67.7548
140 1 3 -1.0000 6.39844 -8.135611 -63.5868
141 1 4 0.0000 4.5894 -6.2593403 -70.6118
142 1 16 0.0000 4.76561 -8.104361 -72.3398
143 1 12 0.0000 4.8201 -3.1248798 -69.330605
144 1 8 0.0000 3.82817 -0.460316 -70.1876
145 1 9 0.0000 7.7381 -3.0788002 -68.636795
146 1 13 0.0000 10.5777 -6.0126104 -66.494896
147 1 9 0.0000 9.01272 -3.2962399 -71.637405
148 1 3 -1.0000 12.013201 -3.97133 -74.5169
149 1 9 0.0000 7.72067 -0.480847 -72.7731
150 1 14 0.0000 5.3063397 1.0412099 -74.5499
151 1 14 0.0000 4.45616 2.97997 -76.2757
152 1 15 0.0000 2.76978 1.4091 -75.1873
153 1 12 0.0000 9.36472 1.57141 -71.071
154 1 8 0.0000 6.93559 3.34052 -69.9019
155 1 12 0.0000 12.4498 0.701698 -72.0153
156 1 3 -1.0000 16.1232 0.058516502 -70.8331
157 1 2 0.0000 12.9679 2.5866401 -74.156
158 1 2 0.0000 15.9626 3.70988 -74.2825
159 1 7 0.0000 10.1687 3.59726 -75.6157
160 1 6 0.0000 8.47732 5.5215797 -74.0203
161 1 12 0.0000 11.3268 3.35632 -78.6222
162 1 6 0.0000 12.874399 6.3470697 -79.3863
163 1 1 1.0000 12.530201 8.59136 -78.1546
164 1 12 0.0000 11.4924 0.0895588 -78.5651
165 1 6 0.0000 14.6229 -0.311254 -77.7059
166 1 1 1.0000 15.8928 -1.38618 -75.2714
167 1 12 0.0000 8.48705 -0.624112 -77.7332
168 1 14 0.0000 6.85195 -2.9124098 -76.5067
169 1 14 0.0000 4.70407 -3.89216 -75.2542
170 1 15 0.0000 7.0122 -5.21833 -75.3816
171 1 2 0.0000 6.3939295 0.54483 -80.0333
172 1 8 0.0000 4.0361 -1.1129 -79.2449
173 1 7 0.0000 6.7157 -0.17087899 -83.0728
174 1 6 0.0000 8.40364 -0.78581303 -85.198204
175 1 12 0.0000 9.04205 3.5611 -83.007
176 1 2 0.0000 6.74381 4.42807 -80.9095
177 1 16 0.0000 7.24129 6.35606 -78.9298
178 1 2 0.0000 5.00998 7.3710003 -83.3475
179 1 6 0.0000 6.69421 5.1719804 -85.597496
180 1 1 1.0000 6.0913496 3.3259602 -87.0808
181 1 2 0.0000 2.2192402 9.32255 -83.6783
182 1 13 0.0000 1.84999 8.45186 -87.1987
183 1 2 0.0000 1.96276 11.1897 -80.635796
184 1 8 0.0000 1.23271 14.2129 -80.86099
185 1 2 0.0000 4.98402 11.676399 -78.0017
186 1 10 0.0000 3.2905998 13.4586 -76.1541
187 1 10 0.0000 3.75543 15.6818 -74.907295
188 1 10 0.0000 1.30044 15.3257 -76.255104
189 1 11 0.0000 7.64598 10.5366 -76.6613
190 1 2 0.0000 9.10015 10.1053 -73.8371
191 1 2 0.0000 11.143499 8.2342 -70.8617
192 1 8 0.0000 12.9181 10.246201 -70.2451
193 1 2 0.0000 11.5731 5.1659603 -68.306496
194 1 6 0.0000 14.2206 4.79633 -69.824
195 1 1 1.0000 16.5447 4.42448 -69.0153
196 1 2 0.0000 15.543099 1.28788 -65.913
197 1 6 0.0000 17.6019 2.5428798 -63.8998
198 1 1 1.0000 17.3402 3.63724 -61.4294
199 1 4 0.0000 14.4178 -0.87750703 -63.783897
200 1 6 0.0000 11.8293 -3.50943 -62.5775
201 1 1 1.0000 8.702 -4.6753902 -61.894398
202 1 4 0.0000 12.848001 1.02481 -61.602703
203 1 16 0.0000 11.9779005 0.215817 -59.222103
204 1 4 0.0000 11.974601 3.39894 -63.799202
205 1 3 -1.0000 14.7186 5.9182205 -64.418
206 1 4 0.0000 10.346399 1.05303 -65.6264
207 1 7 0.0000 11.8998 -1.11479 -67.7868
208 1 1 1.0000 13.3033 -3.7272701 -69.747604
209 1 7 0.0000 8.856441 -0.10675 -63.5036
210 1 3 -1.0000 6.74366 -1.26571 -59.5654
211 1 7 0.0000 6.99018 2.4892101 -62.3941
212 1 3 -1.0000 6.48747 -0.510513 -59.8067
213 1 7 0.0000 5.53825 2.94025 -65.2424
214 1 8 0.0000 7.09058 5.75676 -65.5045
215 1 7 0.0000 4.1677704 -0.0498808 -64.8448
216 1 8 0.0000 5.2968197 -2.65602 -64.7856
217 1 13 0.0000 2.5731301 0.783865 -62.0829
218 1 7 0.0000 0.65817297 2.8798401 -63.6038
219 1 14 0.0000 1.36271 5.67927 -65.2307
220 1 14 0.0000 2.41335 6.026 -67.7473
221 1 15 0.0000 0.675444 7.74212 -66.9076
222 1 7 0.0000 -0.64176 0.77951795 -65.5414
223 1 8 0.0000 0.46342897 -2.17243 -66.9885
224 1 7 0.0000 -1.68892 -1.08952 -63.336502
225 1 6 0.0000 0.48792002 -3.33354 -61.9861
226 1 1 1.0000 3.20996 -3.8938098 -60.8461
227 1 9 0.0000 -3.24422 1.3353001 -61.7104
228 1 6 0.0000 -2.84341 1.47519 -58.612297
229 1 1 1.0000 -4.42513 2.14366 -56.1795
230 1 7 0.0000 -5.28003 2.05547 -64.184296
231 1 9 0.0000 -7.1254997 -0.673872 -64.2873
232 1 16 0.0000 -8.28868 -1.13225 -66.8641
233 1 9 0.0000 -7.99358 -0.493167 -61.3278
234 1 2 0.0000 -6.60482 -2.45467 -59.272697
235 1 3 -1.0000 -7.598 3.09255 -60.5093
236 1 3 -1.0000 -8.02932 4.75394 -57.4519

Bonds

1 1 1 2
2 1 31 33
3 1 33 34
4 1 34 36
5 1 36 38
6 1 38 42
7 1 42 44
8 1 44 46
9 1 46 48
10 1 48 51
11 1 51 52
12 1 52 53
13 1 53 56
14 1 56 60
15 1 60 63
16 1 63 65
17 1 65 66
18 1 66 68
19 1 68 70
20 1 70 72
21 1 72 76
22 1 76 77
23 1 77 79
24 1 79 83
25 1 83 84
26 1 84 87
27 1 87 90
28 1 90 92
29 1 92 93
30 1 93 95
31 1 95 96
32 1 96 98
33 1 98 99
34 1 99 103
35 1 103 105
36 1 105 109
37 1 121 124
38 1 124 125
39 1 125 127
40 1 127 129
41 1 129 134
42 1 153 155
43 1 155 157
44 1 171 173
45 1 173 175
46 1 175 176
47 1 176 178
48 1 178 181
49 1 181 183
50 1 183 185
51 1 185 189
52 1 189 190
53 1 190 191
54 1 191 193
55 1 193 196
56 2 2 3
57 3 6 7
58 4 8 9
59 5 9 10
60 4 12 13
61 5 13 14
62 4 15 16
63 5 16 17
64 6 20 21
65 3 26 27
66 4 28 29
67 5 29 30
68 6 31 32
69 3 34 35
70 6 36 37
71 2 38 39
72 3 46 47
73 4 48 49
74 5 49 50
75 4 53 54
76 5 54 55
77 2 56 57
78 4 60 61
79 5 61 62
80 7 66 67
81 8 68 69
82 9 70 71
83 2 72 73
84 9 77 78
85 6 79 80
86 4 84 85
87 10 85 86
88 4 87 88
89 5 88 89
90 3 93 94
91 7 96 97
92 6 99 100
93 8 105 106
94 2 111 112
95 8 114 115
96 4 116 117
97 5 117 118
98 8 119 120
99 4 121 122
100 5 122 123
101 11 129 130
102 4 134 135
103 5 135 136
104 3 137 138
105 3 139 140
106 9 143 144
107 12 145 146
108 3 147 148
109 8 149 150
110 9 153 154
111 3 155 156
112 8 157 158
113 7 159 160
114 4 161 162
115 5 162 163
116 4 164 165
117 5 165 166
118 8 167 168
119 7 173 174
120 4 178 179
121 5 179 180
122 12 181 182
123 6 185 186
124 4 193 194
125 5 194 195
126 4 196 197
127 5 197 198
128 4 199 200
129 5 200 201
130 3 204 205
131 4 206 207
132 10 207 208
133 3 209 210
134 2 211 212
135 9 213 214
136 8 218 219
137 9 222 223
138 4 224 225
139 5 225 226
140 4 227 228
141 5 228 229
142 8 233 234
143 3 235 236
144 13 2 4
145 14 4 6
146 14 6 8
147 14 8 11
148 14 11 12
149 14 12 15
150 14 15 18
151 14 18 20
152 14 20 24
153 14 24 26
154 14 26 28
155 13 28 31
156 13 109 111
157 14 111 113
158 14 113 114
159 14 114 116
160 14 116 119
161 13 119 121
162 13 134 137
163 14 137 139
164 14 139 141
165 14 141 143
166 14 143 145
167 14 145 147
168 14 147 149
169 13 149 153
170 13 157 159
171 14 159 161
172 14 161 164
173 14 164 167
174 13 167 171
175 13 196 199
176 14 199 202
177 14 202 204
178 14 204 206
179 14 206 209
180 14 209 211
181 14 211 213
182 14 213 215
183 14 215 217
184 14 217 218
185 14 218 222
186 14 222 224
187 14 224 227
188 14 227 230
189 14 230 231
190 14 231 233
191 13 233 235
192 15 4 5
193 14 18 19
194 16 21 22
195 16 21 23
196 16 22 23
197 15 24 25
198 16 39 40
199 16 39 41
200 16 40 41
201 17 42 43
202 15 44 45
203 16 57 58
204 16 57 59
205 16 58 59
206 17 63 64
207 16 73 74
208 16 73 75
209 16 74 75
210 16 80 81
211 16 80 82
212 16 81 82
213 17 90 91
214 16 100 101
215 16 100 102
216 16 101 102
217 17 103 104
218 16 106 107
219 16 106 108
220 16 107 108
221 17 109 110
222 14 125 126
223 17 127 128
224 16 130 131
225 16 130 132
226 16 131 132
227 16 131 133
228 16 132 133
229 17 141 142
230 16 150 151
231 16 150 152
232 16 151 152
233 16 168 169
234 16 168 170
235 16 169 170
236 14 171 172
237 17 176 177
238 14 183 184
239 16 186 187
240 16 186 188
241 16 187 188
242 14 191 192
243 17 202 203
244 14 215 216
245 16 219 220
246 16 219 221
247 16 220 221
248 17 231 232

Angles

1 1 1 2 4
2 1 2 4 6
3 2 4 6 8
4 2 6 8 11
5 2 8 11 12
6 2 11 12 15
7 2 12 15 18
8 2 15 18 20
9 2 18 20 24
10 2 20 24 26
11 2 24 26 28
12 3 26 28 31
13 3 28 31 33
14 3 31 33 34
15 3 33 34 36
16 3 34 36 38
17 3 36 38 42
18 1 38 42 44
19 1 42 44 46
20 3 44 46 48
21 3 46 48 51
22 3 48 51 52
23 3 51 52 53
24 1 52 53 56
25 1 53 56 60
26 1 56 60 63
27 1 60 63 65
28 4 63 65 66
29 1 65 66 68
30 1 66 68 70
31 3 68 70 72
32 3 70 72 76
33 3 72 76 77
34 3 76 77 79
35 3 77 79 83
36 3 79 83 84
37 3 83 84 87
38 3 84 87 90
39 3 87 90 92
40 3 90 92 93
41 3 92 93 95
42 1 93 95 96
43 3 95 96 98
44 3 96 98 99
45 3 98 99 103
46 1 99 103 105
47 1 103 105 109
48 1 105 109 111
49 1 109 111 113
50 2 111 113 114
51 2 113 114 116
52 2 114 116 119
53 1 116 119 121
54 1 119 121 124
55 1 121 124 125
56 1 124 125 127
57 1 125 127 129
58 1 127 129 134
59 1 129 134 137
60 4 134 137 139
61 2 137 139 141
62 2 139 141 143
63 2 141 143 145
64 2 143 145 147
65 2 145 147 149
66 3 147 149 153
67 3 149 153 155
68 3 153 155 157
69 3 155 157 159
70 5 157 159 161
71 5 159 161 164
72 2 161 164 167
73 4 164 167 171
74 4 167 171 173
75 3 171 173 175
76 3 173 175 176
77 3 175 176 178
78 1 176 178 181
79 1 178 181 183
80 1 181 183 185
81 1 183 185 189
82 1 185 189 190
83 1 189 190 191
84 1 190 191 193
85 1 191 193 196
86 1 193 196 199
87 4 196 199 202
88 2 199 202 204
89 2 202 204 206
90 2 204 206 209
91 2 206 209 211
92 2 209 211 213
93 2 211 213 215
94 2 213 215 217
95 2 215 217 218
96 2 217 218 222
97 2 218 222 224
98 2 222 224 227
99 2 224 227 230
100 2 227 230 231
101 2 230 231 233
102 1 231 233 235
103 6 1 2 3
104 6 2 4 5
105 6 4 6 7
106 6 6 8 9
107 6 11 12 13
108 6 12 15 16
109 6 15 18 19
110 6 18 20 21
111 6 20 24 25
112 6 24 26 27
113 6 26 28 29
114 6 28 31 32
115 6 33 34 35
116 6 34 36 37
117 6 36 38 39
118 6 38 42 43
119 6 42 44 45
120 6 44 46 47
121 6 46 48 49
122 6 52 53 54
123 6 53 56 57
124 6 56 60 61
125 6 60 63 64
126 6 65 66 67
127 6 66 68 69
128 6 68 70 71
129 6 70 72 73
130 6 76 77 78
131 6 77 79 80
132 6 83 84 85
133 6 84 87 88
134 6 87 90 91
135 6 92 93 94
136 6 95 96 97
137 6 98 99 100
138 6 99 103 104
139 6 103 105 106
140 6 105 109 110
141 6 109 111 112
142 6 113 114 115
143 6 114 116 117
144 6 116 119 120
145 6 119 121 122
146 6 124 125 126
147 6 125 127 128
148 6 127 129 130
149 6 129 134 135
150 6 134 137 138
151 6 137 139 140
152 6 139 141 142
153 6 141 143 144
154 6 143 145 146
155 6 145 147 148
156 6 147 149 150
157 6 149 153 154
158 6 153 155 156
159 6 155 157 158
160 6 157 159 160
161 6 159 161 162
162 6 161 164 165
163 6 164 167 168
164 6 167 171 172
165 6 171 173 174
166 6 175 176 177
167 6 176 178 179
168 6 178 181 182
169 6 181 183 184
170 6 183 185 186
171 6 190 191 192
172 6 191 193 194
173 6 193 196 197
174 6 196 199 200
175 6 199 202 203
176 6 202 204 205
177 6 204 206 207
178 6 206 209 210
179 6 209 211 212
180 6 211 213 214
181 6 213 215 216
182 6 217 218 219
183 6 218 222 223
184 6 222 224 225
185 6 224 227 228
186 6 230 231 232
187 6 231 233 234
188 6 233 235 236
189 7 8 9 10
190 7 12 13 14
191 7 15 16 17
192 8 20 21 22
193 8 20 21 23
194 7 28 29 30
195 8 38 39 40
196 8 38 39 41
197 7 48 49 50
198 7 53 54 55
199 8 56 57 58
200 8 56 57 59
201 7 60 61 62
202 8 72 73 74
203 8 72 73 75
204 8 79 80 81
205 8 79 80 82
206 7 84 85 86
207 7 87 88 89
208 8 99 100 101
209 8 99 100 102
210 8 105 106 107
211 8 105 106 108
212 7 116 117 118
213 7 121 122 123
214 9 129 130 131
215 10 129 130 132
216 7 134 135 136
217 8 149 150 151
218 8 149 150 152
219 7 161 162 163
220 7 164 165 166
221 8 167 168 169
222 8 167 168 170
223 7 178 179 180
224 8 185 186 187
225 8 185 186 188
226 7 193 194 195
227 7 196 197 198
228 7 199 200 201
229 7 206 207 208
230 8 218 219 220
231 8 218 219 221
232 7 224 225 226
233 7 227 228 229

Dihedrals

1 1 4 6 8 11
2 1 6 8 11 12
3 1 8 11 12 15
4 1 11 12 15 18
5 1 12 15 18 20
6 1 15 18 20 24
7 1 18 20 24 26
8 1 20 24 26 28
9 1 111 113 114 116
10 1 113 114 116 119
11 1 137 139 141 143
12 1 139 141 143 145
13 1 141 143 145 147
14 1 143 145 147 149
15 1 159 161 164 167
16 1 199 202 204 206
17 1 202 204 206 209
18 1 204 206 209 211
19 1 206 209 211 213
20 1 209 211 213 215
21 1 211 213 215 217
22 1 213 215 217 218
23 1 215 217 218 222
24 1 217 218 222 224
25 1 218 222 224 227
26 1 222 224 227 230
27 1 224 227 230 231
28 1 227 230 231 233

Impropers

1 1 20 22 23 21
2 1 38 40 41 39
3 1 56 58 59 57
4 1 72 74 75 73
5 1 79 81 82 80
6 1 99 101 102 100
7 1 105 107 108 106
8 1 129 131 132 130
9 2 130 131 133 132
10 1 149 151 152 150
11 1 167 169 170 168
12 1 185 187 188 186
13 1 218 220 221 219

