comment

236 atoms
248 bonds
233 angles
28 dihedrals
13 impropers

17 atom types
17 bond types
10 angle types
1 dihedral types
2 improper types

-40.5 40.5 xlo xhi
-40.5 40.5 ylo yhi
-190.0 190.0 zlo zhi

Masses

1 72.0
2 72.0
3 72.0
4 72.0
5 72.0
6 72.0
7 72.0
8 72.0
9 72.0
10 45.0
11 72.0
12 72.0
13 72.0
14 45.0
15 45.0
16 72.0
17 45.0

PairIJ Coeffs

1 1 1.19503 4.699999999999999
1 2 1.3384336 4.699999999999999
1 3 1.3384336 4.699999999999999
1 4 0.956024 4.699999999999999
1 5 0.478012 4.699999999999999
1 6 0.5497137999999999 4.699999999999999
1 7 0.836521 4.699999999999999
1 8 0.478012 4.699999999999999
1 9 1.19503 4.699999999999999
1 10 0.7409186 4.699999999999999
1 11 1.3384336 4.699999999999999
1 12 1.19503 4.699999999999999
1 13 0.7409186 4.699999999999999
1 14 0.6453162 4.699999999999999
1 15 1.19503 4.699999999999999
1 16 1.19503 4.699999999999999
1 17 0.956024 4.699999999999999
2 2 1.3384336 4.699999999999999
2 3 1.3384336 4.699999999999999
2 4 1.19503 4.699999999999999
2 5 0.5497137999999999 4.699999999999999
2 6 0.6453162 4.699999999999999
2 7 0.836521 4.699999999999999
2 8 0.478012 4.699999999999999
2 9 1.19503 4.699999999999999
2 10 0.7409186 4.699999999999999
2 11 1.3384336 4.699999999999999
2 12 1.19503 4.699999999999999
2 13 0.7409186 4.699999999999999
2 14 0.6453162 4.699999999999999
2 15 1.3384336 4.699999999999999
2 16 1.3384336 4.699999999999999
2 17 1.19503 4.699999999999999
3 3 1.19503 4.699999999999999
3 4 1.19503 4.699999999999999
3 5 0.478012 4.699999999999999
3 6 0.5497137999999999 4.699999999999999
3 7 0.836521 4.699999999999999
3 8 0.478012 4.699999999999999
3 9 0.956024 4.699999999999999
3 10 0.7409186 4.699999999999999
3 11 1.3384336 4.699999999999999
3 12 1.19503 4.699999999999999
3 13 0.7409186 4.699999999999999
3 14 0.6453162 4.699999999999999
3 15 1.19503 4.699999999999999
3 16 1.19503 4.699999999999999
3 17 1.19503 4.699999999999999
4 4 0.956024 4.699999999999999
4 5 0.6453162 4.699999999999999
4 6 0.6453162 4.699999999999999
4 7 0.836521 4.699999999999999
4 8 0.6453162 4.699999999999999
4 9 1.075527 4.699999999999999
4 10 0.836521 4.699999999999999
4 11 0.956024 4.699999999999999
4 12 1.075527 4.699999999999999
4 13 0.836521 4.699999999999999
4 14 0.7409186 4.699999999999999
4 15 1.075527 4.699999999999999
4 16 1.075527 4.699999999999999
4 17 0.956024 4.699999999999999
5 5 0.836521 4.699999999999999
5 6 0.836521 4.699999999999999
5 7 0.7409186 4.699999999999999
5 8 0.836521 4.699999999999999
5 9 0.6453162 4.699999999999999
5 10 0.7409186 4.699999999999999
5 11 0.5497137999999999 4.699999999999999
5 12 0.6453162 4.699999999999999
5 13 0.7409186 4.699999999999999
5 14 0.7409186 4.699999999999999
5 15 0.7409186 4.699999999999999
5 16 0.7409186 4.699999999999999
5 17 0.6453162 4.699999999999999
6 6 0.836521 4.699999999999999
6 7 0.836521 4.699999999999999
6 8 0.836521 4.699999999999999
6 9 0.6453162 4.699999999999999
6 10 0.836521 4.699999999999999
6 11 0.6453162 4.699999999999999
6 12 0.6453162 4.699999999999999
6 13 0.836521 4.699999999999999
6 14 0.836521 4.699999999999999
6 15 0.836521 4.699999999999999
6 16 0.836521 4.699999999999999
6 17 0.6453162 4.699999999999999
7 7 0.836521 4.699999999999999
7 8 0.6453162 4.699999999999999
7 9 0.836521 4.699999999999999
7 10 0.836521 4.699999999999999
7 11 0.836521 4.699999999999999
7 12 0.836521 4.699999999999999
7 13 0.836521 4.699999999999999
7 14 0.836521 4.699999999999999
7 15 0.956024 4.699999999999999
7 16 0.956024 4.699999999999999
7 17 0.836521 4.699999999999999
8 8 0.836521 4.699999999999999
8 9 0.6453162 4.699999999999999
8 10 0.7409186 4.699999999999999
8 11 0.478012 4.699999999999999
8 12 0.6453162 4.699999999999999
8 13 0.7409186 4.699999999999999
8 14 0.7409186 4.699999999999999
8 15 0.6453162 4.699999999999999
8 16 0.6453162 4.699999999999999
8 17 0.6453162 4.699999999999999
9 9 0.956024 4.699999999999999
9 10 0.836521 4.699999999999999
9 11 0.956024 4.699999999999999
9 12 1.075527 4.699999999999999
9 13 0.836521 4.699999999999999
9 14 0.7409186 4.699999999999999
9 15 1.075527 4.699999999999999
9 16 1.075527 4.699999999999999
9 17 1.075527 4.699999999999999
10 10 0.62739075 4.3
10 11 0.7409186 4.699999999999999
10 12 0.836521 4.699999999999999
10 13 0.836521 4.699999999999999
10 14 0.62739075 4.3
10 15 0.62739075 4.3
10 16 0.836521 4.699999999999999
10 17 0.62739075 4.3
11 11 1.19503 4.699999999999999
11 12 0.956024 4.699999999999999
11 13 0.7409186 4.699999999999999
11 14 0.6453162 4.699999999999999
11 15 1.075527 4.699999999999999
11 16 1.075527 4.699999999999999
11 17 0.956024 4.699999999999999
12 12 1.075527 4.699999999999999
12 13 0.836521 4.699999999999999
12 14 0.7409186 4.699999999999999
12 15 1.075527 4.699999999999999
12 16 1.075527 4.699999999999999
12 17 1.075527 4.699999999999999
13 13 0.836521 4.699999999999999
13 14 0.836521 4.699999999999999
13 15 0.836521 4.699999999999999
13 16 0.836521 4.699999999999999
13 17 0.836521 4.699999999999999
14 14 0.62739075 4.3
14 15 0.62739075 4.3
14 16 0.836521 4.699999999999999
14 17 0.5556889500000001 4.3
15 15 0.80664525 4.3
15 16 1.075527 4.699999999999999
15 17 0.80664525 4.3
16 16 1.075527 4.699999999999999
16 17 1.075527 4.699999999999999
17 17 0.7170179999999999 4.3

Bond Coeffs

1 1.4937875 3.5
2 8.962725 3.2
3 5.97515 4.0
4 5.97515 3.3000000000000003
5 5.97515 2.8000000000000003
6 8.962725 3.1
7 8.962725 3.0
8 5.97515 3.2
9 8.962725 3.3000000000000003
10 5.97515 3.4000000000000004
11 5.97515 3.0
12 2.987575 4.0
13 11.9503 3.3000000000000003
14 11.9503 3.1
15 11.9503 2.6500000000000004
16 11.9503 2.7
17 11.9503 2.6

Angle Coeffs

1 2.39006 127
2 83.6521 96
3 2.39006 100
4 2.39006 130
5 11.9503 98
6 2.987575 100
7 2.987575 180
8 5.97515 150
9 5.97515 210
10 5.97515 90

Dihedral Coeffs

1 95.6024 1 -120 0

Improper Coeffs

1 5.97515 0
2 23.9006 0

Atoms

1 1 1 1.0000 1.2549999 -0.027 -48.818
2 1 2 0.0000 0.082323 0.085150495 -51.0705
3 1 3 -1.0000 -1.23202 -0.751184 -53.2473
4 1 4 0.0000 2.10705 1.94552 -54.1913
5 1 5 0.0000 3.05529 0.43001902 -55.6916
6 1 4 0.0000 1.85565 5.23507 -54.6767
7 1 3 -1.0000 -1.72757 6.1954303 -55.8131
8 1 4 0.0000 4.57029 5.89865 -56.2296
9 1 6 0.0000 6.7861996 4.47265 -54.9535
10 1 1 1.0000 7.53274 1.6493701 -55.672997
11 1 4 0.0000 4.02197 4.68867 -59.120003
12 1 7 0.0000 1.68013 6.55775 -59.9813
13 1 6 0.0000 -1.5644699 6.49835 -60.7686
14 1 1 1.0000 -3.96821 5.87606 -59.9543
15 1 7 0.0000 3.52826 9.34745 -59.3749
16 1 6 0.0000 1.96469 10.7931 -56.7456
17 1 1 1.0000 -0.43100402 10.379601 -54.2817
18 1 7 0.0000 6.2182803 9.349979 -61.5913
19 1 8 0.0000 7.72269 6.96828 -60.728996
20 1 9 0.0000 4.7219 9.53794 -64.2375
21 1 10 0.0000 5.09414 9.37278 -67.4498
22 1 10 0.0000 4.59102 9.66839 -70.198105
23 1 10 0.0000 7.09979 9.06152 -69.198296
24 1 9 0.0000 3.5928898 12.6331 -63.727
25 1 5 0.0000 1.0909699 13.653801 -62.9526
26 1 9 0.0000 6.25675 14.334101 -63.133503
27 1 11 0.0000 4.56642 17.275501 -65.6891
28 1 9 0.0000 7.89694 13.17 -66.0335
29 1 6 0.0000 9.72905 10.9223995 -65.2941
30 1 1 1.0000 11.1897 8.85528 -65.4755
31 1 12 0.0000 7.20509 14.3354 -69.260704
32 1 13 0.0000 8.20221 14.035799 -72.0318
33 1 7 0.0000 3.7030501 14.3397 -69.0858
34 1 12 0.0000 1.20276 12.5008 -67.9594
35 1 11 0.0000 -1.71525 15.4347 -68.1422
36 1 12 0.0000 -0.41641203 12.3283 -71.177505
37 1 13 0.0000 -0.84399295 15.3503 -71.3931
38 1 2 0.0000 -0.685528 9.12511 -70.6832
39 1 14 0.0000 1.58797 7.93301 -72.3873
40 1 15 0.0000 2.7595499 5.7249203 -72.1641
41 1 15 0.0000 3.59987 7.83714 -74.0477
42 1 2 0.0000 -3.77916 7.86457 -70.6725
43 1 16 0.0000 -4.59333 8.15554 -72.9324
44 1 2 0.0000 -4.04666 6.20607 -67.41
45 1 5 0.0000 -3.1532202 3.85965 -67.269905
46 1 2 0.0000 -7.0665903 5.93687 -64.72
47 1 3 -1.0000 -5.5473204 9.6514 -62.8067
48 1 12 0.0000 -10.3905 3.8644001 -64.913704
49 1 6 0.0000 -11.6669 3.06332 -61.806103
50 1 1 1.0000 -11.8299 2.1229 -59.061897
51 1 12 0.0000 -12.1579 5.85696 -66.585304
52 1 2 0.0000 -9.07469 7.98878 -67.2384
53 1 2 0.0000 -9.9058 11.4046 -65.9807
54 1 6 0.0000 -10.461201 9.97113 -62.550003
55 1 1 1.0000 -9.42602 7.9766703 -60.6439
56 1 2 0.0000 -9.65753 12.9765 -69.9881
57 1 14 0.0000 -10.7145 10.4925 -71.8265
58 1 15 0.0000 -9.28467 8.02867 -72.244804
59 1 15 0.0000 -11.415 7.9737997 -72.2005
60 1 2 0.0000 -5.4070096 12.5173 -71.371
61 1 6 0.0000 -4.80454 11.859501 -68.2776
62 1 1 1.0000 -3.52459 11.3381 -66.1862
63 1 2 0.0000 -3.25674 12.4162 -75.2837
64 1 16 0.0000 -3.62666 14.67 -76.6534
65 1 2 0.0000 -1.0072 10.2934 -75.7428
66 1 11 0.0000 -0.253649 6.64219 -77.017395
67 1 6 0.0000 1.8129399 6.1479197 -79.0062
68 1 2 0.0000 -1.59536 4.7058697 -74.751
69 1 2 0.0000 -4.84777 4.0106897 -76.155
70 1 2 0.0000 -2.45327 2.25472 -71.8885
71 1 8 0.0000 -0.0292999 2.27637 -70.052704
72 1 12 0.0000 -5.9611897 2.60953 -73.7597
73 1 14 0.0000 -7.14221 4.00982 -71.0387
74 1 15 0.0000 -9.848021 3.84644 -70.3233
75 1 15 0.0000 -7.80694 3.0208702 -68.7602
76 1 12 0.0000 -7.1151 -0.83985 -72.753204
77 1 2 0.0000 -5.8399496 -2.11893 -70.9575
78 1 8 0.0000 -3.8753102 -0.975036 -68.4419
79 1 12 0.0000 -6.0862103 -5.72516 -70.2825
80 1 10 0.0000 -5.08885 -6.0549 -67.2301
81 1 10 0.0000 -3.86444 -5.3423204 -64.8998
82 1 10 0.0000 -6.36797 -6.98085 -65.2026
83 1 12 0.0000 -5.67177 -8.02048 -72.835304
84 1 2 0.0000 -3.324 -6.7620997 -75.7476
85 1 7 0.0000 -4.09831 -4.07242 -75.3737
86 1 1 1.0000 -4.15764 -1.2031801 -76.9353
87 1 2 0.0000 -3.5679502 -7.36278 -79.1815
88 1 6 0.0000 -1.2304499 -9.37939 -80.64941
89 1 1 1.0000 0.759424 -10.5861 -82.354095
90 1 12 0.0000 -1.6552199 -4.25571 -80.1168
91 1 16 0.0000 0.145887 -3.8770602 -78.583496
92 1 12 0.0000 -4.66066 -2.34586 -81.7846
93 1 2 0.0000 -7.87597 -0.844455 -80.382095
94 1 11 0.0000 -9.16484 -3.67187 -77.951195
95 1 11 0.0000 -8.91456 1.52622 -77.9079
96 1 7 0.0000 -10.586801 4.3694 -75.6577
97 1 6 0.0000 -12.990399 3.24909 -74.6792
98 1 12 0.0000 -8.44006 6.74842 -77.2829
99 1 2 0.0000 -8.16553 5.1297803 -80.22681
100 1 10 0.0000 -7.5921702 7.3917003 -82.097
101 1 10 0.0000 -6.33889 7.13145 -84.4935
102 1 10 0.0000 -7.0260696 9.63401 -83.7992
103 1 2 0.0000 -4.76718 3.0504 -81.801994
104 1 16 0.0000 -5.64254 2.21875 -84.1145
105 1 2 0.0000 -2.18219 5.3772097 -82.217705
106 1 14 0.0000 -3.2191398 8.1042595 -80.4819
107 1 14 0.0000 -5.31083 9.45371 -79.268
108 1 15 0.0000 -3.52188 10.6984 -80.6196
109 1 2 0.0000 -1.04024 5.0642595 -85.7006
110 1 16 0.0000 -2.24909 6.1048503 -87.561
111 1 4 0.0000 1.70365 3.2066898 -85.323296
112 1 3 -1.0000 1.8527999 1.66404 -87.8967
113 1 7 0.0000 2.3940701 2.2407799 -82.485306
114 1 12 0.0000 -0.281237 0.810793 -81.804596
115 1 2 0.0000 -0.246624 1.2238001 -78.5426
116 1 12 0.0000 -0.257234 -1.36536 -84.021904
117 1 6 0.0000 -2.2128 -0.92942405 -86.660095
118 1 1 1.0000 -2.66721 1.31147 -88.242
119 1 9 0.0000 2.5313601 -2.8681002 -83.4473
120 1 2 0.0000 4.2513 -2.21837 -86.235596
121 1 2 0.0000 4.39433 -4.95537 -81.635704
122 1 6 0.0000 8.06976 -5.41825 -81.160805
123 1 1 1.0000 10.3541 -5.69758 -79.0756
124 1 2 0.0000 3.6991098 -7.02779 -80.4492
125 1 2 0.0000 1.7561901 -8.1753 -76.9813
126 1 8 0.0000 3.29949 -10.7269 -76.3798
127 1 2 0.0000 0.154684 -9.13692 -72.9946
128 1 16 0.0000 -1.5168799 -10.7243 -74.328094
129 1 2 0.0000 -0.795531 -7.82044 -69.8247
130 1 14 0.0000 -0.905687 -5.06391 -70.5934
131 1 17 0.0000 -0.51631397 -2.75722 -71.7566
132 1 10 0.0000 0.33230498 -4.89912 -73.152
133 1 10 0.0000 0.431085 -2.5009 -74.142395
134 1 2 0.0000 0.51858 -8.40099 -66.4422
135 1 6 0.0000 2.61238 -10.8866005 -67.3067
136 1 1 1.0000 4.76577 -11.4983 -65.2233
137 1 4 0.0000 2.8252199 -6.19232 -65.4571
138 1 3 -1.0000 5.6071596 -7.85017 -62.617
139 1 4 0.0000 5.19957 -7.4178 -67.3711
140 1 3 -1.0000 6.49685 -7.8967295 -63.141098
141 1 4 0.0000 4.39532 -6.2971 -70.3777
142 1 16 0.0000 4.82243 -8.3429 -72.1494
143 1 12 0.0000 4.42867 -3.3150399 -69.7313
144 1 8 0.0000 4.18752 -0.180684 -70.0591
145 1 9 0.0000 7.5232 -3.0043302 -68.7702
146 1 13 0.0000 10.3928995 -6.1794195 -66.8501
147 1 9 0.0000 8.91634 -3.38223 -71.630005
148 1 3 -1.0000 11.631499 -3.8808 -74.7492
149 1 9 0.0000 7.96705 -0.91838 -73.0808
150 1 14 0.0000 5.50579 0.677212 -74.604004
151 1 14 0.0000 4.42518 2.67731 -75.9857
152 1 15 0.0000 2.81486 1.3140299 -74.2852
153 1 12 0.0000 9.47906 1.53792 -71.279305
154 1 8 0.0000 7.4637995 3.0055099 -69.6258
155 1 12 0.0000 12.897901 1.2257301 -72.604996
156 1 3 -1.0000 16.4244 0.0333886 -71.9441
157 1 2 0.0000 12.657599 3.52131 -74.1286
158 1 2 0.0000 15.2075 5.10606 -75.0125
159 1 7 0.0000 9.71471 3.6243 -75.4996
160 1 6 0.0000 8.208321 5.95841 -74.0025
161 1 12 0.0000 11.0569 3.30749 -78.5838
162 1 6 0.0000 12.7092 5.9157996 -79.5384
163 1 1 1.0000 11.5539 8.24982 -79.151505
164 1 12 0.0000 11.8057 0.275747 -78.474594
165 1 6 0.0000 14.4307995 -0.033601 -76.9406
166 1 1 1.0000 15.9807005 -2.42087 -75.753105
167 1 12 0.0000 8.72282 -1.05033 -78.1484
168 1 14 0.0000 6.0914097 -3.46414 -77.097404
169 1 14 0.0000 4.47167 -4.1884 -75.2019
170 1 15 0.0000 6.34935 -5.79983 -76.0858
171 1 2 0.0000 6.64083 0.50433403 -80.335304
172 1 8 0.0000 4.0109 -0.99365103 -79.1497
173 1 7 0.0000 7.56634 0.347859 -83.8815
174 1 6 0.0000 9.5541 -1.79502 -84.5411
175 1 12 0.0000 8.50779 4.10581 -83.0333
176 1 2 0.0000 6.2185297 5.0688305 -80.8437
177 1 16 0.0000 6.69755 6.3182697 -78.6309
178 1 2 0.0000 4.6441503 7.2349696 -83.422005
179 1 6 0.0000 5.9756603 5.3785 -85.9451
180 1 1 1.0000 5.76645 3.7695 -87.85989
181 1 2 0.0000 2.2511501 9.16119 -83.6194
182 1 13 0.0000 2.28412 7.82604 -87.7182
183 1 2 0.0000 1.7030699 10.9027 -80.68
184 1 8 0.0000 0.308339 13.5664 -80.1007
185 1 2 0.0000 3.9550302 10.9102 -77.8057
186 1 10 0.0000 3.3092701 13.646299 -76.5232
187 1 10 0.0000 3.76487 14.6245 -74.1725
188 1 10 0.0000 1.3885 15.2502 -75.4356
189 1 11 0.0000 7.3386803 10.9396 -76.9214
190 1 2 0.0000 10.4431 10.805301 -74.541504
191 1 2 0.0000 12.0684 8.265 -71.8024
192 1 8 0.0000 12.6605 10.2874 -69.7835
193 1 2 0.0000 11.8372 4.87684 -69.081894
194 1 6 0.0000 14.839 4.71933 -69.906204
195 1 1 1.0000 17.160099 3.92595 -69.7558
196 1 2 0.0000 15.4932995 1.02201 -66.073296
197 1 6 0.0000 17.949501 2.97773 -64.0858
198 1 1 1.0000 17.4427 4.76926 -61.6099
199 1 4 0.0000 14.152 -1.20569 -63.5212
200 1 6 0.0000 11.9169 -3.77929 -62.789402
201 1 1 1.0000 9.24258 -4.49301 -61.7854
202 1 4 0.0000 13.074501 0.938459 -61.705097
203 1 16 0.0000 12.351 0.251945 -59.137
204 1 4 0.0000 11.873501 3.0469098 -63.938797
205 1 3 -1.0000 14.8384 6.0997896 -65.2115
206 1 4 0.0000 10.122499 1.05566 -65.6911
207 1 7 0.0000 11.7437 -0.76923496 -68.0198
208 1 1 1.0000 13.776899 -3.39221 -70.427
209 1 7 0.0000 8.35569 -0.045400802 -63.3651
210 1 3 -1.0000 7.0001297 -1.4083899 -59.2976
211 1 7 0.0000 7.03119 2.42963 -62.159
212 1 3 -1.0000 6.13332 -0.576265 -59.3434
213 1 7 0.0000 5.60859 3.20324 -64.9027
214 1 8 0.0000 7.7353 5.6411 -65.5605
215 1 7 0.0000 3.9256701 0.542574 -64.9662
216 1 8 0.0000 5.1032696 -2.0743802 -65.0885
217 1 13 0.0000 2.47368 1.17484 -62.1903
218 1 7 0.0000 0.612266 3.16089 -63.264397
219 1 14 0.0000 1.6200299 5.62642 -64.905
220 1 14 0.0000 2.56413 6.1659904 -67.3051
221 1 15 0.0000 0.69744295 7.82374 -66.1902
222 1 7 0.0000 -0.915962 0.65943396 -65.018
223 1 8 0.0000 0.457346 -2.19701 -66.6975
224 1 7 0.0000 -1.69486 -1.0629 -62.5984
225 1 6 0.0000 0.90948594 -3.24842 -62.1067
226 1 1 1.0000 3.7406702 -4.21947 -60.8744
227 1 9 0.0000 -3.3656 1.11149 -61.327
228 1 6 0.0000 -2.50298 1.43282 -58.270798
229 1 1 1.0000 -4.2831903 2.03782 -56.1211
230 1 7 0.0000 -5.50188 1.79069 -63.7433
231 1 9 0.0000 -7.38779 -0.77973 -63.6102
232 1 16 0.0000 -8.13208 -1.4241201 -66.0431
233 1 9 0.0000 -8.11474 -0.47793198 -60.467102
234 1 2 0.0000 -6.2385798 -2.9609501 -59.460102
235 1 3 -1.0000 -7.4235897 2.7983902 -60.251003
236 1 3 -1.0000 -7.9916296 4.8863897 -57.644802

Bonds

1 1 1 2
2 1 31 33
3 1 33 34
4 1 34 36
5 1 36 38
6 1 38 42
7 1 42 44
8 1 44 46
9 1 46 48
10 1 48 51
11 1 51 52
12 1 52 53
13 1 53 56
14 1 56 60
15 1 60 63
16 1 63 65
17 1 65 66
18 1 66 68
19 1 68 70
20 1 70 72
21 1 72 76
22 1 76 77
23 1 77 79
24 1 79 83
25 1 83 84
26 1 84 87
27 1 87 90
28 1 90 92
29 1 92 93
30 1 93 95
31 1 95 96
32 1 96 98
33 1 98 99
34 1 99 103
35 1 103 105
36 1 105 109
37 1 121 124
38 1 124 125
39 1 125 127
40 1 127 129
41 1 129 134
42 1 153 155
43 1 155 157
44 1 171 173
45 1 173 175
46 1 175 176
47 1 176 178
48 1 178 181
49 1 181 183
50 1 183 185
51 1 185 189
52 1 189 190
53 1 190 191
54 1 191 193
55 1 193 196
56 2 2 3
57 3 6 7
58 4 8 9
59 5 9 10
60 4 12 13
61 5 13 14
62 4 15 16
63 5 16 17
64 6 20 21
65 3 26 27
66 4 28 29
67 5 29 30
68 6 31 32
69 3 34 35
70 6 36 37
71 2 38 39
72 3 46 47
73 4 48 49
74 5 49 50
75 4 53 54
76 5 54 55
77 2 56 57
78 4 60 61
79 5 61 62
80 7 66 67
81 8 68 69
82 9 70 71
83 2 72 73
84 9 77 78
85 6 79 80
86 4 84 85
87 10 85 86
88 4 87 88
89 5 88 89
90 3 93 94
91 7 96 97
92 6 99 100
93 8 105 106
94 2 111 112
95 8 114 115
96 4 116 117
97 5 117 118
98 8 119 120
99 4 121 122
100 5 122 123
101 11 129 130
102 4 134 135
103 5 135 136
104 3 137 138
105 3 139 140
106 9 143 144
107 12 145 146
108 3 147 148
109 8 149 150
110 9 153 154
111 3 155 156
112 8 157 158
113 7 159 160
114 4 161 162
115 5 162 163
116 4 164 165
117 5 165 166
118 8 167 168
119 7 173 174
120 4 178 179
121 5 179 180
122 12 181 182
123 6 185 186
124 4 193 194
125 5 194 195
126 4 196 197
127 5 197 198
128 4 199 200
129 5 200 201
130 3 204 205
131 4 206 207
132 10 207 208
133 3 209 210
134 2 211 212
135 9 213 214
136 8 218 219
137 9 222 223
138 4 224 225
139 5 225 226
140 4 227 228
141 5 228 229
142 8 233 234
143 3 235 236
144 13 2 4
145 14 4 6
146 14 6 8
147 14 8 11
148 14 11 12
149 14 12 15
150 14 15 18
151 14 18 20
152 14 20 24
153 14 24 26
154 14 26 28
155 13 28 31
156 13 109 111
157 14 111 113
158 14 113 114
159 14 114 116
160 14 116 119
161 13 119 121
162 13 134 137
163 14 137 139
164 14 139 141
165 14 141 143
166 14 143 145
167 14 145 147
168 14 147 149
169 13 149 153
170 13 157 159
171 14 159 161
172 14 161 164
173 14 164 167
174 13 167 171
175 13 196 199
176 14 199 202
177 14 202 204
178 14 204 206
179 14 206 209
180 14 209 211
181 14 211 213
182 14 213 215
183 14 215 217
184 14 217 218
185 14 218 222
186 14 222 224
187 14 224 227
188 14 227 230
189 14 230 231
190 14 231 233
191 13 233 235
192 15 4 5
193 14 18 19
194 16 21 22
195 16 21 23
196 16 22 23
197 15 24 25
198 16 39 40
199 16 39 41
200 16 40 41
201 17 42 43
202 15 44 45
203 16 57 58
204 16 57 59
205 16 58 59
206 17 63 64
207 16 73 74
208 16 73 75
209 16 74 75
210 16 80 81
211 16 80 82
212 16 81 82
213 17 90 91
214 16 100 101
215 16 100 102
216 16 101 102
217 17 103 104
218 16 106 107
219 16 106 108
220 16 107 108
221 17 109 110
222 14 125 126
223 17 127 128
224 16 130 131
225 16 130 132
226 16 131 132
227 16 131 133
228 16 132 133
229 17 141 142
230 16 150 151
231 16 150 152
232 16 151 152
233 16 168 169
234 16 168 170
235 16 169 170
236 14 171 172
237 17 176 177
238 14 183 184
239 16 186 187
240 16 186 188
241 16 187 188
242 14 191 192
243 17 202 203
244 14 215 216
245 16 219 220
246 16 219 221
247 16 220 221
248 17 231 232

Angles

1 1 1 2 4
2 1 2 4 6
3 2 4 6 8
4 2 6 8 11
5 2 8 11 12
6 2 11 12 15
7 2 12 15 18
8 2 15 18 20
9 2 18 20 24
10 2 20 24 26
11 2 24 26 28
12 3 26 28 31
13 3 28 31 33
14 3 31 33 34
15 3 33 34 36
16 3 34 36 38
17 3 36 38 42
18 1 38 42 44
19 1 42 44 46
20 3 44 46 48
21 3 46 48 51
22 3 48 51 52
23 3 51 52 53
24 1 52 53 56
25 1 53 56 60
26 1 56 60 63
27 1 60 63 65
28 4 63 65 66
29 1 65 66 68
30 1 66 68 70
31 3 68 70 72
32 3 70 72 76
33 3 72 76 77
34 3 76 77 79
35 3 77 79 83
36 3 79 83 84
37 3 83 84 87
38 3 84 87 90
39 3 87 90 92
40 3 90 92 93
41 3 92 93 95
42 1 93 95 96
43 3 95 96 98
44 3 96 98 99
45 3 98 99 103
46 1 99 103 105
47 1 103 105 109
48 1 105 109 111
49 1 109 111 113
50 2 111 113 114
51 2 113 114 116
52 2 114 116 119
53 1 116 119 121
54 1 119 121 124
55 1 121 124 125
56 1 124 125 127
57 1 125 127 129
58 1 127 129 134
59 1 129 134 137
60 4 134 137 139
61 2 137 139 141
62 2 139 141 143
63 2 141 143 145
64 2 143 145 147
65 2 145 147 149
66 3 147 149 153
67 3 149 153 155
68 3 153 155 157
69 3 155 157 159
70 5 157 159 161
71 5 159 161 164
72 2 161 164 167
73 4 164 167 171
74 4 167 171 173
75 3 171 173 175
76 3 173 175 176
77 3 175 176 178
78 1 176 178 181
79 1 178 181 183
80 1 181 183 185
81 1 183 185 189
82 1 185 189 190
83 1 189 190 191
84 1 190 191 193
85 1 191 193 196
86 1 193 196 199
87 4 196 199 202
88 2 199 202 204
89 2 202 204 206
90 2 204 206 209
91 2 206 209 211
92 2 209 211 213
93 2 211 213 215
94 2 213 215 217
95 2 215 217 218
96 2 217 218 222
97 2 218 222 224
98 2 222 224 227
99 2 224 227 230
100 2 227 230 231
101 2 230 231 233
102 1 231 233 235
103 6 1 2 3
104 6 2 4 5
105 6 4 6 7
106 6 6 8 9
107 6 11 12 13
108 6 12 15 16
109 6 15 18 19
110 6 18 20 21
111 6 20 24 25
112 6 24 26 27
113 6 26 28 29
114 6 28 31 32
115 6 33 34 35
116 6 34 36 37
117 6 36 38 39
118 6 38 42 43
119 6 42 44 45
120 6 44 46 47
121 6 46 48 49
122 6 52 53 54
123 6 53 56 57
124 6 56 60 61
125 6 60 63 64
126 6 65 66 67
127 6 66 68 69
128 6 68 70 71
129 6 70 72 73
130 6 76 77 78
131 6 77 79 80
132 6 83 84 85
133 6 84 87 88
134 6 87 90 91
135 6 92 93 94
136 6 95 96 97
137 6 98 99 100
138 6 99 103 104
139 6 103 105 106
140 6 105 109 110
141 6 109 111 112
142 6 113 114 115
143 6 114 116 117
144 6 116 119 120
145 6 119 121 122
146 6 124 125 126
147 6 125 127 128
148 6 127 129 130
149 6 129 134 135
150 6 134 137 138
151 6 137 139 140
152 6 139 141 142
153 6 141 143 144
154 6 143 145 146
155 6 145 147 148
156 6 147 149 150
157 6 149 153 154
158 6 153 155 156
159 6 155 157 158
160 6 157 159 160
161 6 159 161 162
162 6 161 164 165
163 6 164 167 168
164 6 167 171 172
165 6 171 173 174
166 6 175 176 177
167 6 176 178 179
168 6 178 181 182
169 6 181 183 184
170 6 183 185 186
171 6 190 191 192
172 6 191 193 194
173 6 193 196 197
174 6 196 199 200
175 6 199 202 203
176 6 202 204 205
177 6 204 206 207
178 6 206 209 210
179 6 209 211 212
180 6 211 213 214
181 6 213 215 216
182 6 217 218 219
183 6 218 222 223
184 6 222 224 225
185 6 224 227 228
186 6 230 231 232
187 6 231 233 234
188 6 233 235 236
189 7 8 9 10
190 7 12 13 14
191 7 15 16 17
192 8 20 21 22
193 8 20 21 23
194 7 28 29 30
195 8 38 39 40
196 8 38 39 41
197 7 48 49 50
198 7 53 54 55
199 8 56 57 58
200 8 56 57 59
201 7 60 61 62
202 8 72 73 74
203 8 72 73 75
204 8 79 80 81
205 8 79 80 82
206 7 84 85 86
207 7 87 88 89
208 8 99 100 101
209 8 99 100 102
210 8 105 106 107
211 8 105 106 108
212 7 116 117 118
213 7 121 122 123
214 9 129 130 131
215 10 129 130 132
216 7 134 135 136
217 8 149 150 151
218 8 149 150 152
219 7 161 162 163
220 7 164 165 166
221 8 167 168 169
222 8 167 168 170
223 7 178 179 180
224 8 185 186 187
225 8 185 186 188
226 7 193 194 195
227 7 196 197 198
228 7 199 200 201
229 7 206 207 208
230 8 218 219 220
231 8 218 219 221
232 7 224 225 226
233 7 227 228 229

Dihedrals

1 1 4 6 8 11
2 1 6 8 11 12
3 1 8 11 12 15
4 1 11 12 15 18
5 1 12 15 18 20
6 1 15 18 20 24
7 1 18 20 24 26
8 1 20 24 26 28
9 1 111 113 114 116
10 1 113 114 116 119
11 1 137 139 141 143
12 1 139 141 143 145
13 1 141 143 145 147
14 1 143 145 147 149
15 1 159 161 164 167
16 1 199 202 204 206
17 1 202 204 206 209
18 1 204 206 209 211
19 1 206 209 211 213
20 1 209 211 213 215
21 1 211 213 215 217
22 1 213 215 217 218
23 1 215 217 218 222
24 1 217 218 222 224
25 1 218 222 224 227
26 1 222 224 227 230
27 1 224 227 230 231
28 1 227 230 231 233

Impropers

1 1 20 22 23 21
2 1 38 40 41 39
3 1 56 58 59 57
4 1 72 74 75 73
5 1 79 81 82 80
6 1 99 101 102 100
7 1 105 107 108 106
8 1 129 131 132 130
9 2 130 131 133 132
10 1 149 151 152 150
11 1 167 169 170 168
12 1 185 187 188 186
13 1 218 220 221 219

