comment

236 atoms
248 bonds
233 angles
28 dihedrals
13 impropers

17 atom types
17 bond types
10 angle types
1 dihedral types
2 improper types

-40.5 40.5 xlo xhi
-40.5 40.5 ylo yhi
-190.0 190.0 zlo zhi

Masses

1 72.0
2 72.0
3 72.0
4 72.0
5 72.0
6 72.0
7 72.0
8 72.0
9 72.0
10 45.0
11 72.0
12 72.0
13 72.0
14 45.0
15 45.0
16 72.0
17 45.0

PairIJ Coeffs

1 1 1.19503 4.699999999999999
1 2 1.3384336 4.699999999999999
1 3 1.3384336 4.699999999999999
1 4 0.956024 4.699999999999999
1 5 0.478012 4.699999999999999
1 6 0.5497137999999999 4.699999999999999
1 7 0.836521 4.699999999999999
1 8 0.478012 4.699999999999999
1 9 1.19503 4.699999999999999
1 10 0.7409186 4.699999999999999
1 11 1.3384336 4.699999999999999
1 12 1.19503 4.699999999999999
1 13 0.7409186 4.699999999999999
1 14 0.6453162 4.699999999999999
1 15 1.19503 4.699999999999999
1 16 1.19503 4.699999999999999
1 17 0.956024 4.699999999999999
2 2 1.3384336 4.699999999999999
2 3 1.3384336 4.699999999999999
2 4 1.19503 4.699999999999999
2 5 0.5497137999999999 4.699999999999999
2 6 0.6453162 4.699999999999999
2 7 0.836521 4.699999999999999
2 8 0.478012 4.699999999999999
2 9 1.19503 4.699999999999999
2 10 0.7409186 4.699999999999999
2 11 1.3384336 4.699999999999999
2 12 1.19503 4.699999999999999
2 13 0.7409186 4.699999999999999
2 14 0.6453162 4.699999999999999
2 15 1.3384336 4.699999999999999
2 16 1.3384336 4.699999999999999
2 17 1.19503 4.699999999999999
3 3 1.19503 4.699999999999999
3 4 1.19503 4.699999999999999
3 5 0.478012 4.699999999999999
3 6 0.5497137999999999 4.699999999999999
3 7 0.836521 4.699999999999999
3 8 0.478012 4.699999999999999
3 9 0.956024 4.699999999999999
3 10 0.7409186 4.699999999999999
3 11 1.3384336 4.699999999999999
3 12 1.19503 4.699999999999999
3 13 0.7409186 4.699999999999999
3 14 0.6453162 4.699999999999999
3 15 1.19503 4.699999999999999
3 16 1.19503 4.699999999999999
3 17 1.19503 4.699999999999999
4 4 0.956024 4.699999999999999
4 5 0.6453162 4.699999999999999
4 6 0.6453162 4.699999999999999
4 7 0.836521 4.699999999999999
4 8 0.6453162 4.699999999999999
4 9 1.075527 4.699999999999999
4 10 0.836521 4.699999999999999
4 11 0.956024 4.699999999999999
4 12 1.075527 4.699999999999999
4 13 0.836521 4.699999999999999
4 14 0.7409186 4.699999999999999
4 15 1.075527 4.699999999999999
4 16 1.075527 4.699999999999999
4 17 0.956024 4.699999999999999
5 5 0.836521 4.699999999999999
5 6 0.836521 4.699999999999999
5 7 0.7409186 4.699999999999999
5 8 0.836521 4.699999999999999
5 9 0.6453162 4.699999999999999
5 10 0.7409186 4.699999999999999
5 11 0.5497137999999999 4.699999999999999
5 12 0.6453162 4.699999999999999
5 13 0.7409186 4.699999999999999
5 14 0.7409186 4.699999999999999
5 15 0.7409186 4.699999999999999
5 16 0.7409186 4.699999999999999
5 17 0.6453162 4.699999999999999
6 6 0.836521 4.699999999999999
6 7 0.836521 4.699999999999999
6 8 0.836521 4.699999999999999
6 9 0.6453162 4.699999999999999
6 10 0.836521 4.699999999999999
6 11 0.6453162 4.699999999999999
6 12 0.6453162 4.699999999999999
6 13 0.836521 4.699999999999999
6 14 0.836521 4.699999999999999
6 15 0.836521 4.699999999999999
6 16 0.836521 4.699999999999999
6 17 0.6453162 4.699999999999999
7 7 0.836521 4.699999999999999
7 8 0.6453162 4.699999999999999
7 9 0.836521 4.699999999999999
7 10 0.836521 4.699999999999999
7 11 0.836521 4.699999999999999
7 12 0.836521 4.699999999999999
7 13 0.836521 4.699999999999999
7 14 0.836521 4.699999999999999
7 15 0.956024 4.699999999999999
7 16 0.956024 4.699999999999999
7 17 0.836521 4.699999999999999
8 8 0.836521 4.699999999999999
8 9 0.6453162 4.699999999999999
8 10 0.7409186 4.699999999999999
8 11 0.478012 4.699999999999999
8 12 0.6453162 4.699999999999999
8 13 0.7409186 4.699999999999999
8 14 0.7409186 4.699999999999999
8 15 0.6453162 4.699999999999999
8 16 0.6453162 4.699999999999999
8 17 0.6453162 4.699999999999999
9 9 0.956024 4.699999999999999
9 10 0.836521 4.699999999999999
9 11 0.956024 4.699999999999999
9 12 1.075527 4.699999999999999
9 13 0.836521 4.699999999999999
9 14 0.7409186 4.699999999999999
9 15 1.075527 4.699999999999999
9 16 1.075527 4.699999999999999
9 17 1.075527 4.699999999999999
10 10 0.62739075 4.3
10 11 0.7409186 4.699999999999999
10 12 0.836521 4.699999999999999
10 13 0.836521 4.699999999999999
10 14 0.62739075 4.3
10 15 0.62739075 4.3
10 16 0.836521 4.699999999999999
10 17 0.62739075 4.3
11 11 1.19503 4.699999999999999
11 12 0.956024 4.699999999999999
11 13 0.7409186 4.699999999999999
11 14 0.6453162 4.699999999999999
11 15 1.075527 4.699999999999999
11 16 1.075527 4.699999999999999
11 17 0.956024 4.699999999999999
12 12 1.075527 4.699999999999999
12 13 0.836521 4.699999999999999
12 14 0.7409186 4.699999999999999
12 15 1.075527 4.699999999999999
12 16 1.075527 4.699999999999999
12 17 1.075527 4.699999999999999
13 13 0.836521 4.699999999999999
13 14 0.836521 4.699999999999999
13 15 0.836521 4.699999999999999
13 16 0.836521 4.699999999999999
13 17 0.836521 4.699999999999999
14 14 0.62739075 4.3
14 15 0.62739075 4.3
14 16 0.836521 4.699999999999999
14 17 0.5556889500000001 4.3
15 15 0.80664525 4.3
15 16 1.075527 4.699999999999999
15 17 0.80664525 4.3
16 16 1.075527 4.699999999999999
16 17 1.075527 4.699999999999999
17 17 0.7170179999999999 4.3

Bond Coeffs

1 1.4937875 3.5
2 8.962725 3.2
3 5.97515 4.0
4 5.97515 3.3000000000000003
5 5.97515 2.8000000000000003
6 8.962725 3.1
7 8.962725 3.0
8 5.97515 3.2
9 8.962725 3.3000000000000003
10 5.97515 3.4000000000000004
11 5.97515 3.0
12 2.987575 4.0
13 11.9503 3.3000000000000003
14 11.9503 3.1
15 11.9503 2.6500000000000004
16 11.9503 2.7
17 11.9503 2.6

Angle Coeffs

1 2.39006 127
2 83.6521 96
3 2.39006 100
4 2.39006 130
5 11.9503 98
6 2.987575 100
7 2.987575 180
8 5.97515 150
9 5.97515 210
10 5.97515 90

Dihedral Coeffs

1 95.6024 1 -120 0

Improper Coeffs

1 5.97515 0
2 23.9006 0

Atoms

1 1 1 1.0000 1.2549999 -0.027 -48.818
2 1 2 0.0000 0.0986837 0.0895689 -50.7657
3 1 3 -1.0000 -1.07588 -0.79866 -52.817
4 1 4 0.0000 1.87324 2.21979 -54.180298
5 1 5 0.0000 2.94697 0.23093499 -55.026897
6 1 4 0.0000 1.48414 5.03207 -54.8922
7 1 3 -1.0000 -2.0227199 5.74465 -55.1287
8 1 4 0.0000 4.21749 5.68212 -56.0896
9 1 6 0.0000 6.5615997 4.32096 -54.7894
10 1 1 1.0000 7.7346096 1.80214 -55.5821
11 1 4 0.0000 3.85268 4.5514803 -59.197002
12 1 7 0.0000 1.62849 7.02057 -60.1094
13 1 6 0.0000 -1.2311 6.2831903 -60.6428
14 1 1 1.0000 -3.87955 6.16296 -59.7134
15 1 7 0.0000 3.44399 9.74566 -59.394104
16 1 6 0.0000 1.46464 10.9014 -56.7304
17 1 1 1.0000 0.0478419 9.91978 -54.477303
18 1 7 0.0000 5.8787103 9.374849 -61.602802
19 1 8 0.0000 8.24387 7.2112203 -60.2553
20 1 9 0.0000 4.36414 9.96861 -64.2796
21 1 10 0.0000 5.1225605 9.54026 -67.2097
22 1 10 0.0000 4.8379602 9.538509 -69.6704
23 1 10 0.0000 7.29454 9.04981 -68.7415
24 1 9 0.0000 3.52629 13.1396 -63.828003
25 1 5 0.0000 1.0726501 13.5008 -62.6685
26 1 9 0.0000 6.5595 14.344799 -63.572998
27 1 11 0.0000 5.26711 17.4337 -65.613396
28 1 9 0.0000 7.86193 13.4978 -66.0607
29 1 6 0.0000 9.64373 10.9542 -64.5056
30 1 1 1.0000 10.9184 8.63305 -64.9725
31 1 12 0.0000 6.73891 14.145401 -69.177795
32 1 13 0.0000 8.28012 13.8116 -71.8191
33 1 7 0.0000 3.74516 14.316999 -69.141205
34 1 12 0.0000 1.59173 13.128 -68.0861
35 1 11 0.0000 -1.02416 15.657999 -68.3723
36 1 12 0.0000 -0.33602598 12.2823 -71.5773
37 1 13 0.0000 -1.118 15.2492 -71.6316
38 1 2 0.0000 -1.27012 8.72682 -70.8887
39 1 14 0.0000 1.2620901 7.3478003 -71.7969
40 1 15 0.0000 3.28335 5.7216196 -72.0683
41 1 15 0.0000 3.50471 7.94316 -73.2182
42 1 2 0.0000 -4.53859 7.45125 -71.185394
43 1 16 0.0000 -4.9911003 7.7848296 -73.6554
44 1 2 0.0000 -4.86234 6.5230103 -67.678696
45 1 5 0.0000 -3.16469 4.60259 -67.488
46 1 2 0.0000 -6.89393 6.4773602 -64.9859
47 1 3 -1.0000 -5.98287 9.0721 -62.9504
48 1 12 0.0000 -10.2257 3.70926 -64.1635
49 1 6 0.0000 -12.006399 2.81726 -61.265602
50 1 1 1.0000 -11.638401 2.03633 -58.2891
51 1 12 0.0000 -11.9779005 5.07214 -66.3612
52 1 2 0.0000 -9.78014 7.65333 -66.751
53 1 2 0.0000 -10.0977 10.510599 -65.8698
54 1 6 0.0000 -11.065101 9.12535 -62.473103
55 1 1 1.0000 -9.496571 7.42744 -60.5234
56 1 2 0.0000 -9.52388 12.2954 -69.2031
57 1 14 0.0000 -10.7084 10.3703 -71.199196
58 1 15 0.0000 -9.70166 8.49078 -72.836395
59 1 15 0.0000 -12.171499 8.14797 -71.8542
60 1 2 0.0000 -5.5690904 12.3109 -71.2451
61 1 6 0.0000 -5.01193 11.6807995 -68.2891
62 1 1 1.0000 -4.1960998 11.7138 -66.0784
63 1 2 0.0000 -4.37492 12.2969 -74.8894
64 1 16 0.0000 -3.75348 14.2004 -76.481
65 1 2 0.0000 -0.83072 10.2811 -75.8573
66 1 11 0.0000 0.28188 7.1257596 -76.7675
67 1 6 0.0000 1.33739 6.57465 -79.2985
68 1 2 0.0000 -1.49463 4.46168 -74.5308
69 1 2 0.0000 -3.91749 4.11351 -76.7094
70 1 2 0.0000 -1.67206 2.33899 -72.0524
71 1 8 0.0000 0.528718 2.66497 -69.5915
72 1 12 0.0000 -5.7591496 2.4419599 -73.843796
73 1 14 0.0000 -7.29212 3.20673 -71.4819
74 1 15 0.0000 -8.91589 4.9608703 -70.5907
75 1 15 0.0000 -8.21963 3.21561 -68.8917
76 1 12 0.0000 -7.94613 -0.91977 -73.6377
77 1 2 0.0000 -5.2810297 -1.6224099 -71.2263
78 1 8 0.0000 -4.1399603 -0.167595 -68.5895
79 1 12 0.0000 -5.3994603 -5.17179 -70.5186
80 1 10 0.0000 -4.93036 -5.40143 -67.4793
81 1 10 0.0000 -3.8244102 -4.3790903 -65.2637
82 1 10 0.0000 -5.6374197 -6.4725204 -65.1039
83 1 12 0.0000 -5.68384 -7.74601 -72.7787
84 1 2 0.0000 -3.98095 -6.47166 -75.5899
85 1 7 0.0000 -4.09911 -3.81663 -75.8209
86 1 1 1.0000 -3.94532 -1.0115 -77.0932
87 1 2 0.0000 -3.36934 -8.3043995 -79.1578
88 1 6 0.0000 -0.537749 -9.98763 -80.4696
89 1 1 1.0000 -0.142436 -12.3687 -79.6891
90 1 12 0.0000 -1.99093 -4.59529 -80.343
91 1 16 0.0000 0.117549 -3.87889 -78.7331
92 1 12 0.0000 -4.05778 -2.67295 -81.8493
93 1 2 0.0000 -7.65713 -1.23261 -80.186005
94 1 11 0.0000 -9.17127 -3.8885798 -78.0373
95 1 11 0.0000 -8.88481 1.38571 -77.5315
96 1 7 0.0000 -10.253201 3.61683 -75.729
97 1 6 0.0000 -13.137701 4.09204 -75.3159
98 1 12 0.0000 -8.4036 6.4341903 -77.326294
99 1 2 0.0000 -8.12727 4.51752 -80.464096
100 1 10 0.0000 -7.48158 7.38912 -82.1064
101 1 10 0.0000 -6.83557 7.34869 -84.7287
102 1 10 0.0000 -6.6149096 9.53259 -83.5123
103 1 2 0.0000 -4.61043 3.10045 -81.5867
104 1 16 0.0000 -5.34937 2.1461601 -83.9339
105 1 2 0.0000 -2.1466599 5.5859 -81.9648
106 1 14 0.0000 -3.14465 7.6523 -80.583496
107 1 14 0.0000 -4.3646197 9.10828 -78.7386
108 1 15 0.0000 -3.11062 10.4137 -80.2266
109 1 2 0.0000 -1.6040599 4.82721 -85.6824
110 1 16 0.0000 -2.71628 6.5267 -87.4635
111 1 4 0.0000 0.94968 3.2864099 -85.4522
112 1 3 -1.0000 2.36792 1.47905 -87.538994
113 1 7 0.0000 2.20526 2.47294 -82.600296
114 1 12 0.0000 -0.0536694 0.288294 -81.6823
115 1 2 0.0000 0.049507998 1.47855 -78.5167
116 1 12 0.0000 0.25297302 -2.01555 -84.2916
117 1 6 0.0000 -1.4901 -1.22718 -86.9346
118 1 1 1.0000 -1.91871 0.297999 -88.9491
119 1 9 0.0000 3.23274 -2.72522 -83.7663
120 1 2 0.0000 4.41804 -3.341 -86.941696
121 1 2 0.0000 4.84447 -4.88749 -81.9876
122 1 6 0.0000 8.0098 -5.0402803 -81.0297
123 1 1 1.0000 10.520801 -5.06431 -79.0023
124 1 2 0.0000 3.43857 -7.20874 -80.2023
125 1 2 0.0000 1.65267 -8.24706 -76.6422
126 1 8 0.0000 3.94981 -9.98611 -75.9888
127 1 2 0.0000 0.054407 -9.500071 -73.281204
128 1 16 0.0000 -1.66031 -11.122 -74.3698
129 1 2 0.0000 -0.534455 -8.12609 -70.3356
130 1 14 0.0000 -0.595904 -4.83036 -70.462296
131 1 17 0.0000 -0.272536 -2.4164 -71.356
132 1 10 0.0000 0.17432001 -4.35431 -73.1864
133 1 10 0.0000 0.73268104 -1.63937 -74.0049
134 1 2 0.0000 0.665735 -8.74232 -67.132
135 1 6 0.0000 3.2273002 -10.9831 -67.1948
136 1 1 1.0000 4.2643204 -11.4599 -64.6086
137 1 4 0.0000 2.71599 -6.36364 -65.6725
138 1 3 -1.0000 5.5401497 -7.45735 -62.6841
139 1 4 0.0000 5.45205 -7.5189104 -67.4785
140 1 3 -1.0000 6.4229703 -7.5001197 -63.1251
141 1 4 0.0000 4.2463403 -6.41244 -70.2724
142 1 16 0.0000 4.68067 -8.05659 -72.1872
143 1 12 0.0000 4.3741198 -3.1102898 -69.2948
144 1 8 0.0000 3.8748403 -0.47943 -70.175
145 1 9 0.0000 7.59731 -2.90923 -68.7448
146 1 13 0.0000 9.80006 -5.99276 -66.7227
147 1 9 0.0000 8.47397 -3.5425901 -71.7323
148 1 3 -1.0000 11.6413 -3.8486001 -74.4246
149 1 9 0.0000 7.62933 -0.896865 -73.2758
150 1 14 0.0000 5.69131 1.11455 -74.790405
151 1 14 0.0000 4.30163 3.0307999 -75.7749
152 1 15 0.0000 3.09679 1.6935999 -74.293396
153 1 12 0.0000 9.687651 1.17318 -71.6387
154 1 8 0.0000 7.1872997 2.76608 -70.0419
155 1 12 0.0000 12.588201 1.229 -72.6531
156 1 3 -1.0000 15.755 0.168245 -71.6455
157 1 2 0.0000 13.0877 4.07405 -74.1059
158 1 2 0.0000 15.7414 3.86575 -75.275696
159 1 7 0.0000 10.023299 3.79801 -75.6112
160 1 6 0.0000 7.9788103 5.34261 -73.976
161 1 12 0.0000 11.2104 3.2593 -78.4778
162 1 6 0.0000 12.5123005 5.86131 -78.9933
163 1 1 1.0000 11.1227 8.34349 -79.5445
164 1 12 0.0000 11.4143 0.0655165 -78.7557
165 1 6 0.0000 14.496599 -0.39893502 -78.5053
166 1 1 1.0000 15.472401 -1.6044099 -75.7404
167 1 12 0.0000 8.35154 -0.380035 -78.159
168 1 14 0.0000 6.15622 -2.7677898 -77.0457
169 1 14 0.0000 4.41226 -3.78322 -75.3769
170 1 15 0.0000 6.4065895 -5.21809 -75.989395
171 1 2 0.0000 6.3246603 0.720521 -80.295494
172 1 8 0.0000 4.15389 -1.1523 -79.5793
173 1 7 0.0000 7.05034 0.917112 -83.8793
174 1 6 0.0000 8.772429 -1.5566499 -84.5028
175 1 12 0.0000 9.23522 3.55189 -83.4159
176 1 2 0.0000 6.29174 4.65988 -80.8263
177 1 16 0.0000 6.5770698 5.89576 -78.6295
178 1 2 0.0000 4.4942703 6.74331 -83.4121
179 1 6 0.0000 5.83318 5.21616 -85.6299
180 1 1 1.0000 6.14668 3.9485402 -88.0283
181 1 2 0.0000 1.69035 9.38943 -83.6769
182 1 13 0.0000 2.10291 7.9726305 -87.2386
183 1 2 0.0000 1.99036 11.0571 -80.1425
184 1 8 0.0000 0.248276 13.8446 -79.7007
185 1 2 0.0000 4.03434 10.783401 -77.5404
186 1 10 0.0000 2.63958 13.445 -76.0709
187 1 10 0.0000 3.21825 15.4263 -74.2693
188 1 10 0.0000 1.10446 15.7067 -75.7285
189 1 11 0.0000 6.87868 11.0436 -76.5042
190 1 2 0.0000 9.90485 9.83175 -74.602295
191 1 2 0.0000 11.2599 7.5479 -70.5002
192 1 8 0.0000 12.7879 10.1847 -69.5929
193 1 2 0.0000 12.3145 4.35439 -68.770996
194 1 6 0.0000 15.393 4.4966 -69.8358
195 1 1 1.0000 17.4852 3.66948 -69.2451
196 1 2 0.0000 15.089901 1.3157301 -65.7402
197 1 6 0.0000 17.8683 3.0404801 -63.9809
198 1 1 1.0000 16.835999 4.25418 -61.5629
199 1 4 0.0000 14.3148 -0.697283 -63.088997
200 1 6 0.0000 11.7564 -3.62286 -62.6408
201 1 1 1.0000 9.21793 -4.34096 -61.2789
202 1 4 0.0000 13.003 1.41937 -61.1022
203 1 16 0.0000 11.682 0.987576 -58.9745
204 1 4 0.0000 12.000099 3.40551 -63.4094
205 1 3 -1.0000 14.8567 6.34861 -65.1367
206 1 4 0.0000 10.5846 1.16737 -65.142395
207 1 7 0.0000 11.698299 -1.0227801 -67.4183
208 1 1 1.0000 12.8342 -3.3111799 -69.7628
209 1 7 0.0000 8.94915 -0.140163 -63.168404
210 1 3 -1.0000 6.93231 -1.16461 -58.9403
211 1 7 0.0000 7.32885 2.52634 -61.8394
212 1 3 -1.0000 6.43764 -0.259331 -59.406097
213 1 7 0.0000 5.78963 3.21838 -64.7369
214 1 8 0.0000 8.03716 5.3062 -66.181
215 1 7 0.0000 4.43718 0.279251 -64.881805
216 1 8 0.0000 5.27038 -2.55869 -64.826294
217 1 13 0.0000 2.67405 0.977619 -62.2744
218 1 7 0.0000 0.747529 2.9488702 -63.660004
219 1 14 0.0000 1.22277 5.78912 -64.8769
220 1 14 0.0000 2.0088902 6.64513 -66.994
221 1 15 0.0000 0.17338401 8.08386 -65.9271
222 1 7 0.0000 -0.80536 0.56464005 -65.307
223 1 8 0.0000 0.49286398 -2.22633 -66.6722
224 1 7 0.0000 -1.74291 -1.16167 -62.4752
225 1 6 0.0000 0.81557304 -3.41187 -61.957798
226 1 1 1.0000 3.65672 -3.6808 -60.897297
227 1 9 0.0000 -3.3644102 1.19769 -61.4438
228 1 6 0.0000 -2.21433 2.18888 -58.3919
229 1 1 1.0000 -4.05685 1.86304 -56.2549
230 1 7 0.0000 -5.37228 1.89741 -63.7653
231 1 9 0.0000 -7.0949 -0.735558 -63.785
232 1 16 0.0000 -8.25559 -1.73629 -65.885
233 1 9 0.0000 -7.90335 -0.610272 -60.6144
234 1 2 0.0000 -6.75439 -2.15808 -58.398098
235 1 3 -1.0000 -7.2695203 2.75834 -59.696598
236 1 3 -1.0000 -8.0221195 4.80663 -57.1883

Bonds

1 1 1 2
2 1 31 33
3 1 33 34
4 1 34 36
5 1 36 38
6 1 38 42
7 1 42 44
8 1 44 46
9 1 46 48
10 1 48 51
11 1 51 52
12 1 52 53
13 1 53 56
14 1 56 60
15 1 60 63
16 1 63 65
17 1 65 66
18 1 66 68
19 1 68 70
20 1 70 72
21 1 72 76
22 1 76 77
23 1 77 79
24 1 79 83
25 1 83 84
26 1 84 87
27 1 87 90
28 1 90 92
29 1 92 93
30 1 93 95
31 1 95 96
32 1 96 98
33 1 98 99
34 1 99 103
35 1 103 105
36 1 105 109
37 1 121 124
38 1 124 125
39 1 125 127
40 1 127 129
41 1 129 134
42 1 153 155
43 1 155 157
44 1 171 173
45 1 173 175
46 1 175 176
47 1 176 178
48 1 178 181
49 1 181 183
50 1 183 185
51 1 185 189
52 1 189 190
53 1 190 191
54 1 191 193
55 1 193 196
56 2 2 3
57 3 6 7
58 4 8 9
59 5 9 10
60 4 12 13
61 5 13 14
62 4 15 16
63 5 16 17
64 6 20 21
65 3 26 27
66 4 28 29
67 5 29 30
68 6 31 32
69 3 34 35
70 6 36 37
71 2 38 39
72 3 46 47
73 4 48 49
74 5 49 50
75 4 53 54
76 5 54 55
77 2 56 57
78 4 60 61
79 5 61 62
80 7 66 67
81 8 68 69
82 9 70 71
83 2 72 73
84 9 77 78
85 6 79 80
86 4 84 85
87 10 85 86
88 4 87 88
89 5 88 89
90 3 93 94
91 7 96 97
92 6 99 100
93 8 105 106
94 2 111 112
95 8 114 115
96 4 116 117
97 5 117 118
98 8 119 120
99 4 121 122
100 5 122 123
101 11 129 130
102 4 134 135
103 5 135 136
104 3 137 138
105 3 139 140
106 9 143 144
107 12 145 146
108 3 147 148
109 8 149 150
110 9 153 154
111 3 155 156
112 8 157 158
113 7 159 160
114 4 161 162
115 5 162 163
116 4 164 165
117 5 165 166
118 8 167 168
119 7 173 174
120 4 178 179
121 5 179 180
122 12 181 182
123 6 185 186
124 4 193 194
125 5 194 195
126 4 196 197
127 5 197 198
128 4 199 200
129 5 200 201
130 3 204 205
131 4 206 207
132 10 207 208
133 3 209 210
134 2 211 212
135 9 213 214
136 8 218 219
137 9 222 223
138 4 224 225
139 5 225 226
140 4 227 228
141 5 228 229
142 8 233 234
143 3 235 236
144 13 2 4
145 14 4 6
146 14 6 8
147 14 8 11
148 14 11 12
149 14 12 15
150 14 15 18
151 14 18 20
152 14 20 24
153 14 24 26
154 14 26 28
155 13 28 31
156 13 109 111
157 14 111 113
158 14 113 114
159 14 114 116
160 14 116 119
161 13 119 121
162 13 134 137
163 14 137 139
164 14 139 141
165 14 141 143
166 14 143 145
167 14 145 147
168 14 147 149
169 13 149 153
170 13 157 159
171 14 159 161
172 14 161 164
173 14 164 167
174 13 167 171
175 13 196 199
176 14 199 202
177 14 202 204
178 14 204 206
179 14 206 209
180 14 209 211
181 14 211 213
182 14 213 215
183 14 215 217
184 14 217 218
185 14 218 222
186 14 222 224
187 14 224 227
188 14 227 230
189 14 230 231
190 14 231 233
191 13 233 235
192 15 4 5
193 14 18 19
194 16 21 22
195 16 21 23
196 16 22 23
197 15 24 25
198 16 39 40
199 16 39 41
200 16 40 41
201 17 42 43
202 15 44 45
203 16 57 58
204 16 57 59
205 16 58 59
206 17 63 64
207 16 73 74
208 16 73 75
209 16 74 75
210 16 80 81
211 16 80 82
212 16 81 82
213 17 90 91
214 16 100 101
215 16 100 102
216 16 101 102
217 17 103 104
218 16 106 107
219 16 106 108
220 16 107 108
221 17 109 110
222 14 125 126
223 17 127 128
224 16 130 131
225 16 130 132
226 16 131 132
227 16 131 133
228 16 132 133
229 17 141 142
230 16 150 151
231 16 150 152
232 16 151 152
233 16 168 169
234 16 168 170
235 16 169 170
236 14 171 172
237 17 176 177
238 14 183 184
239 16 186 187
240 16 186 188
241 16 187 188
242 14 191 192
243 17 202 203
244 14 215 216
245 16 219 220
246 16 219 221
247 16 220 221
248 17 231 232

Angles

1 1 1 2 4
2 1 2 4 6
3 2 4 6 8
4 2 6 8 11
5 2 8 11 12
6 2 11 12 15
7 2 12 15 18
8 2 15 18 20
9 2 18 20 24
10 2 20 24 26
11 2 24 26 28
12 3 26 28 31
13 3 28 31 33
14 3 31 33 34
15 3 33 34 36
16 3 34 36 38
17 3 36 38 42
18 1 38 42 44
19 1 42 44 46
20 3 44 46 48
21 3 46 48 51
22 3 48 51 52
23 3 51 52 53
24 1 52 53 56
25 1 53 56 60
26 1 56 60 63
27 1 60 63 65
28 4 63 65 66
29 1 65 66 68
30 1 66 68 70
31 3 68 70 72
32 3 70 72 76
33 3 72 76 77
34 3 76 77 79
35 3 77 79 83
36 3 79 83 84
37 3 83 84 87
38 3 84 87 90
39 3 87 90 92
40 3 90 92 93
41 3 92 93 95
42 1 93 95 96
43 3 95 96 98
44 3 96 98 99
45 3 98 99 103
46 1 99 103 105
47 1 103 105 109
48 1 105 109 111
49 1 109 111 113
50 2 111 113 114
51 2 113 114 116
52 2 114 116 119
53 1 116 119 121
54 1 119 121 124
55 1 121 124 125
56 1 124 125 127
57 1 125 127 129
58 1 127 129 134
59 1 129 134 137
60 4 134 137 139
61 2 137 139 141
62 2 139 141 143
63 2 141 143 145
64 2 143 145 147
65 2 145 147 149
66 3 147 149 153
67 3 149 153 155
68 3 153 155 157
69 3 155 157 159
70 5 157 159 161
71 5 159 161 164
72 2 161 164 167
73 4 164 167 171
74 4 167 171 173
75 3 171 173 175
76 3 173 175 176
77 3 175 176 178
78 1 176 178 181
79 1 178 181 183
80 1 181 183 185
81 1 183 185 189
82 1 185 189 190
83 1 189 190 191
84 1 190 191 193
85 1 191 193 196
86 1 193 196 199
87 4 196 199 202
88 2 199 202 204
89 2 202 204 206
90 2 204 206 209
91 2 206 209 211
92 2 209 211 213
93 2 211 213 215
94 2 213 215 217
95 2 215 217 218
96 2 217 218 222
97 2 218 222 224
98 2 222 224 227
99 2 224 227 230
100 2 227 230 231
101 2 230 231 233
102 1 231 233 235
103 6 1 2 3
104 6 2 4 5
105 6 4 6 7
106 6 6 8 9
107 6 11 12 13
108 6 12 15 16
109 6 15 18 19
110 6 18 20 21
111 6 20 24 25
112 6 24 26 27
113 6 26 28 29
114 6 28 31 32
115 6 33 34 35
116 6 34 36 37
117 6 36 38 39
118 6 38 42 43
119 6 42 44 45
120 6 44 46 47
121 6 46 48 49
122 6 52 53 54
123 6 53 56 57
124 6 56 60 61
125 6 60 63 64
126 6 65 66 67
127 6 66 68 69
128 6 68 70 71
129 6 70 72 73
130 6 76 77 78
131 6 77 79 80
132 6 83 84 85
133 6 84 87 88
134 6 87 90 91
135 6 92 93 94
136 6 95 96 97
137 6 98 99 100
138 6 99 103 104
139 6 103 105 106
140 6 105 109 110
141 6 109 111 112
142 6 113 114 115
143 6 114 116 117
144 6 116 119 120
145 6 119 121 122
146 6 124 125 126
147 6 125 127 128
148 6 127 129 130
149 6 129 134 135
150 6 134 137 138
151 6 137 139 140
152 6 139 141 142
153 6 141 143 144
154 6 143 145 146
155 6 145 147 148
156 6 147 149 150
157 6 149 153 154
158 6 153 155 156
159 6 155 157 158
160 6 157 159 160
161 6 159 161 162
162 6 161 164 165
163 6 164 167 168
164 6 167 171 172
165 6 171 173 174
166 6 175 176 177
167 6 176 178 179
168 6 178 181 182
169 6 181 183 184
170 6 183 185 186
171 6 190 191 192
172 6 191 193 194
173 6 193 196 197
174 6 196 199 200
175 6 199 202 203
176 6 202 204 205
177 6 204 206 207
178 6 206 209 210
179 6 209 211 212
180 6 211 213 214
181 6 213 215 216
182 6 217 218 219
183 6 218 222 223
184 6 222 224 225
185 6 224 227 228
186 6 230 231 232
187 6 231 233 234
188 6 233 235 236
189 7 8 9 10
190 7 12 13 14
191 7 15 16 17
192 8 20 21 22
193 8 20 21 23
194 7 28 29 30
195 8 38 39 40
196 8 38 39 41
197 7 48 49 50
198 7 53 54 55
199 8 56 57 58
200 8 56 57 59
201 7 60 61 62
202 8 72 73 74
203 8 72 73 75
204 8 79 80 81
205 8 79 80 82
206 7 84 85 86
207 7 87 88 89
208 8 99 100 101
209 8 99 100 102
210 8 105 106 107
211 8 105 106 108
212 7 116 117 118
213 7 121 122 123
214 9 129 130 131
215 10 129 130 132
216 7 134 135 136
217 8 149 150 151
218 8 149 150 152
219 7 161 162 163
220 7 164 165 166
221 8 167 168 169
222 8 167 168 170
223 7 178 179 180
224 8 185 186 187
225 8 185 186 188
226 7 193 194 195
227 7 196 197 198
228 7 199 200 201
229 7 206 207 208
230 8 218 219 220
231 8 218 219 221
232 7 224 225 226
233 7 227 228 229

Dihedrals

1 1 4 6 8 11
2 1 6 8 11 12
3 1 8 11 12 15
4 1 11 12 15 18
5 1 12 15 18 20
6 1 15 18 20 24
7 1 18 20 24 26
8 1 20 24 26 28
9 1 111 113 114 116
10 1 113 114 116 119
11 1 137 139 141 143
12 1 139 141 143 145
13 1 141 143 145 147
14 1 143 145 147 149
15 1 159 161 164 167
16 1 199 202 204 206
17 1 202 204 206 209
18 1 204 206 209 211
19 1 206 209 211 213
20 1 209 211 213 215
21 1 211 213 215 217
22 1 213 215 217 218
23 1 215 217 218 222
24 1 217 218 222 224
25 1 218 222 224 227
26 1 222 224 227 230
27 1 224 227 230 231
28 1 227 230 231 233

Impropers

1 1 20 22 23 21
2 1 38 40 41 39
3 1 56 58 59 57
4 1 72 74 75 73
5 1 79 81 82 80
6 1 99 101 102 100
7 1 105 107 108 106
8 1 129 131 132 130
9 2 130 131 133 132
10 1 149 151 152 150
11 1 167 169 170 168
12 1 185 187 188 186
13 1 218 220 221 219

