comment

236 atoms
248 bonds
233 angles
28 dihedrals
13 impropers

17 atom types
17 bond types
10 angle types
1 dihedral types
2 improper types

-40.5 40.5 xlo xhi
-40.5 40.5 ylo yhi
-190.0 190.0 zlo zhi

Masses

1 72.0
2 72.0
3 72.0
4 72.0
5 72.0
6 72.0
7 72.0
8 72.0
9 72.0
10 45.0
11 72.0
12 72.0
13 72.0
14 45.0
15 45.0
16 72.0
17 45.0

PairIJ Coeffs

1 1 1.19503 4.699999999999999
1 2 1.3384336 4.699999999999999
1 3 1.3384336 4.699999999999999
1 4 0.956024 4.699999999999999
1 5 0.478012 4.699999999999999
1 6 0.5497137999999999 4.699999999999999
1 7 0.836521 4.699999999999999
1 8 0.478012 4.699999999999999
1 9 1.19503 4.699999999999999
1 10 0.7409186 4.699999999999999
1 11 1.3384336 4.699999999999999
1 12 1.19503 4.699999999999999
1 13 0.7409186 4.699999999999999
1 14 0.6453162 4.699999999999999
1 15 1.19503 4.699999999999999
1 16 1.19503 4.699999999999999
1 17 0.956024 4.699999999999999
2 2 1.3384336 4.699999999999999
2 3 1.3384336 4.699999999999999
2 4 1.19503 4.699999999999999
2 5 0.5497137999999999 4.699999999999999
2 6 0.6453162 4.699999999999999
2 7 0.836521 4.699999999999999
2 8 0.478012 4.699999999999999
2 9 1.19503 4.699999999999999
2 10 0.7409186 4.699999999999999
2 11 1.3384336 4.699999999999999
2 12 1.19503 4.699999999999999
2 13 0.7409186 4.699999999999999
2 14 0.6453162 4.699999999999999
2 15 1.3384336 4.699999999999999
2 16 1.3384336 4.699999999999999
2 17 1.19503 4.699999999999999
3 3 1.19503 4.699999999999999
3 4 1.19503 4.699999999999999
3 5 0.478012 4.699999999999999
3 6 0.5497137999999999 4.699999999999999
3 7 0.836521 4.699999999999999
3 8 0.478012 4.699999999999999
3 9 0.956024 4.699999999999999
3 10 0.7409186 4.699999999999999
3 11 1.3384336 4.699999999999999
3 12 1.19503 4.699999999999999
3 13 0.7409186 4.699999999999999
3 14 0.6453162 4.699999999999999
3 15 1.19503 4.699999999999999
3 16 1.19503 4.699999999999999
3 17 1.19503 4.699999999999999
4 4 0.956024 4.699999999999999
4 5 0.6453162 4.699999999999999
4 6 0.6453162 4.699999999999999
4 7 0.836521 4.699999999999999
4 8 0.6453162 4.699999999999999
4 9 1.075527 4.699999999999999
4 10 0.836521 4.699999999999999
4 11 0.956024 4.699999999999999
4 12 1.075527 4.699999999999999
4 13 0.836521 4.699999999999999
4 14 0.7409186 4.699999999999999
4 15 1.075527 4.699999999999999
4 16 1.075527 4.699999999999999
4 17 0.956024 4.699999999999999
5 5 0.836521 4.699999999999999
5 6 0.836521 4.699999999999999
5 7 0.7409186 4.699999999999999
5 8 0.836521 4.699999999999999
5 9 0.6453162 4.699999999999999
5 10 0.7409186 4.699999999999999
5 11 0.5497137999999999 4.699999999999999
5 12 0.6453162 4.699999999999999
5 13 0.7409186 4.699999999999999
5 14 0.7409186 4.699999999999999
5 15 0.7409186 4.699999999999999
5 16 0.7409186 4.699999999999999
5 17 0.6453162 4.699999999999999
6 6 0.836521 4.699999999999999
6 7 0.836521 4.699999999999999
6 8 0.836521 4.699999999999999
6 9 0.6453162 4.699999999999999
6 10 0.836521 4.699999999999999
6 11 0.6453162 4.699999999999999
6 12 0.6453162 4.699999999999999
6 13 0.836521 4.699999999999999
6 14 0.836521 4.699999999999999
6 15 0.836521 4.699999999999999
6 16 0.836521 4.699999999999999
6 17 0.6453162 4.699999999999999
7 7 0.836521 4.699999999999999
7 8 0.6453162 4.699999999999999
7 9 0.836521 4.699999999999999
7 10 0.836521 4.699999999999999
7 11 0.836521 4.699999999999999
7 12 0.836521 4.699999999999999
7 13 0.836521 4.699999999999999
7 14 0.836521 4.699999999999999
7 15 0.956024 4.699999999999999
7 16 0.956024 4.699999999999999
7 17 0.836521 4.699999999999999
8 8 0.836521 4.699999999999999
8 9 0.6453162 4.699999999999999
8 10 0.7409186 4.699999999999999
8 11 0.478012 4.699999999999999
8 12 0.6453162 4.699999999999999
8 13 0.7409186 4.699999999999999
8 14 0.7409186 4.699999999999999
8 15 0.6453162 4.699999999999999
8 16 0.6453162 4.699999999999999
8 17 0.6453162 4.699999999999999
9 9 0.956024 4.699999999999999
9 10 0.836521 4.699999999999999
9 11 0.956024 4.699999999999999
9 12 1.075527 4.699999999999999
9 13 0.836521 4.699999999999999
9 14 0.7409186 4.699999999999999
9 15 1.075527 4.699999999999999
9 16 1.075527 4.699999999999999
9 17 1.075527 4.699999999999999
10 10 0.62739075 4.3
10 11 0.7409186 4.699999999999999
10 12 0.836521 4.699999999999999
10 13 0.836521 4.699999999999999
10 14 0.62739075 4.3
10 15 0.62739075 4.3
10 16 0.836521 4.699999999999999
10 17 0.62739075 4.3
11 11 1.19503 4.699999999999999
11 12 0.956024 4.699999999999999
11 13 0.7409186 4.699999999999999
11 14 0.6453162 4.699999999999999
11 15 1.075527 4.699999999999999
11 16 1.075527 4.699999999999999
11 17 0.956024 4.699999999999999
12 12 1.075527 4.699999999999999
12 13 0.836521 4.699999999999999
12 14 0.7409186 4.699999999999999
12 15 1.075527 4.699999999999999
12 16 1.075527 4.699999999999999
12 17 1.075527 4.699999999999999
13 13 0.836521 4.699999999999999
13 14 0.836521 4.699999999999999
13 15 0.836521 4.699999999999999
13 16 0.836521 4.699999999999999
13 17 0.836521 4.699999999999999
14 14 0.62739075 4.3
14 15 0.62739075 4.3
14 16 0.836521 4.699999999999999
14 17 0.5556889500000001 4.3
15 15 0.80664525 4.3
15 16 1.075527 4.699999999999999
15 17 0.80664525 4.3
16 16 1.075527 4.699999999999999
16 17 1.075527 4.699999999999999
17 17 0.7170179999999999 4.3

Bond Coeffs

1 1.4937875 3.5
2 8.962725 3.2
3 5.97515 4.0
4 5.97515 3.3000000000000003
5 5.97515 2.8000000000000003
6 8.962725 3.1
7 8.962725 3.0
8 5.97515 3.2
9 8.962725 3.3000000000000003
10 5.97515 3.4000000000000004
11 5.97515 3.0
12 2.987575 4.0
13 11.9503 3.3000000000000003
14 11.9503 3.1
15 11.9503 2.6500000000000004
16 11.9503 2.7
17 11.9503 2.6

Angle Coeffs

1 2.39006 127
2 83.6521 96
3 2.39006 100
4 2.39006 130
5 11.9503 98
6 2.987575 100
7 2.987575 180
8 5.97515 150
9 5.97515 210
10 5.97515 90

Dihedral Coeffs

1 95.6024 1 -120 0

Improper Coeffs

1 5.97515 0
2 23.9006 0

Atoms

1 1 1 1.0000 1.2549999 -0.027 -48.818
2 1 2 0.0000 0.0821355 0.202841 -50.8107
3 1 3 -1.0000 -1.4733601 -0.732162 -53.2564
4 1 4 0.0000 1.84656 2.21071 -54.263702
5 1 5 0.0000 2.61739 0.559027 -56.2213
6 1 4 0.0000 1.6533799 5.4731297 -54.8558
7 1 3 -1.0000 -1.79021 5.9511 -55.9177
8 1 4 0.0000 4.5570297 5.9725704 -56.4648
9 1 6 0.0000 7.0399704 4.20262 -56.0191
10 1 1 1.0000 8.08497 1.82953 -56.6437
11 1 4 0.0000 3.9228299 4.71002 -59.495003
12 1 7 0.0000 1.4806101 7.08133 -60.5061
13 1 6 0.0000 -1.91717 6.7821198 -60.820396
14 1 1 1.0000 -4.21592 6.00343 -60.279003
15 1 7 0.0000 3.43035 9.77421 -59.9091
16 1 6 0.0000 2.26142 11.085401 -57.3534
17 1 1 1.0000 0.17751399 9.9445095 -55.7934
18 1 7 0.0000 6.08183 9.36669 -61.974
19 1 8 0.0000 8.39126 7.90613 -60.932297
20 1 9 0.0000 4.69132 9.8922 -64.6249
21 1 10 0.0000 5.53149 9.5938 -67.6049
22 1 10 0.0000 5.0758 9.41403 -70.173805
23 1 10 0.0000 7.44276 9.02636 -69.2974
24 1 9 0.0000 3.59341 12.7628 -63.961
25 1 5 0.0000 1.48004 14.3214 -63.962402
26 1 9 0.0000 6.49069 14.0993 -63.2248
27 1 11 0.0000 5.13004 17.509901 -65.146194
28 1 9 0.0000 7.85229 13.5902 -65.9864
29 1 6 0.0000 9.91562 11.1182995 -65.5282
30 1 1 1.0000 11.389101 8.99249 -65.3426
31 1 12 0.0000 6.6015296 14.0206 -68.948204
32 1 13 0.0000 8.79117 14.1359 -71.3954
33 1 7 0.0000 4.17388 14.507199 -69.3643
34 1 12 0.0000 1.21271 12.547999 -68.5617
35 1 11 0.0000 -0.84959203 15.8102 -68.455
36 1 12 0.0000 0.0813967 12.090401 -71.7433
37 1 13 0.0000 -1.10077 15.0966 -71.9072
38 1 2 0.0000 -0.589065 8.74035 -71.7713
39 1 14 0.0000 1.94126 7.17812 -72.6128
40 1 15 0.0000 3.8098698 5.25898 -72.6624
41 1 15 0.0000 3.9021502 7.51903 -73.8312
42 1 2 0.0000 -4.4713697 7.62804 -71.665
43 1 16 0.0000 -5.3889 8.08121 -73.9167
44 1 2 0.0000 -4.86666 7.1309 -68.3739
45 1 5 0.0000 -3.0185199 5.5107203 -67.4433
46 1 2 0.0000 -7.42962 6.4110303 -65.5837
47 1 3 -1.0000 -5.85974 9.42058 -63.2045
48 1 12 0.0000 -11.3431 4.1694303 -64.5709
49 1 6 0.0000 -12.0612 2.6426601 -61.3195
50 1 1 1.0000 -11.3947 1.8747699 -58.5323
51 1 12 0.0000 -12.6256 5.62401 -67.7785
52 1 2 0.0000 -9.88496 7.8539996 -67.5282
53 1 2 0.0000 -10.3324995 10.8998 -66.2629
54 1 6 0.0000 -11.1217 9.29417 -62.9884
55 1 1 1.0000 -9.63137 7.35712 -61.146103
56 1 2 0.0000 -8.7602005 12.186399 -70.173996
57 1 14 0.0000 -9.67289 9.6298895 -71.677795
58 1 15 0.0000 -10.061501 7.1020503 -72.554306
59 1 15 0.0000 -12.2374 8.7466 -71.9246
60 1 2 0.0000 -5.51259 12.9324 -71.8023
61 1 6 0.0000 -4.07821 12.0848 -68.8139
62 1 1 1.0000 -3.2441802 11.3348 -66.5802
63 1 2 0.0000 -3.94063 12.796299 -75.412506
64 1 16 0.0000 -2.98897 15.0793 -76.7292
65 1 2 0.0000 -0.321749 10.7013 -77.1933
66 1 11 0.0000 0.387083 7.98341 -77.2945
67 1 6 0.0000 1.62118 6.29911 -79.1985
68 1 2 0.0000 -1.33272 5.13155 -75.2148
69 1 2 0.0000 -3.4166 4.68198 -77.2724
70 1 2 0.0000 -2.17867 2.53555 -72.3397
71 1 8 0.0000 0.055447202 2.7010899 -70.1458
72 1 12 0.0000 -5.71425 2.45749 -74.2062
73 1 14 0.0000 -7.4682302 3.5472598 -71.7652
74 1 15 0.0000 -9.709789 2.91976 -70.3103
75 1 15 0.0000 -7.1821804 3.15099 -69.3739
76 1 12 0.0000 -7.38401 -0.855775 -73.9764
77 1 2 0.0000 -5.6273503 -1.5097401 -71.4116
78 1 8 0.0000 -3.8674102 -0.70448196 -68.6685
79 1 12 0.0000 -6.08552 -5.7122097 -70.3527
80 1 10 0.0000 -4.66996 -5.77553 -67.318405
81 1 10 0.0000 -2.7346702 -5.83794 -65.588005
82 1 10 0.0000 -5.01858 -7.1890097 -64.889
83 1 12 0.0000 -5.7554502 -7.9569902 -72.992004
84 1 2 0.0000 -5.45089 -6.8565297 -75.8166
85 1 7 0.0000 -4.0496297 -4.0737 -75.336395
86 1 1 1.0000 -2.87182 -1.34762 -75.6902
87 1 2 0.0000 -4.22968 -7.67998 -78.458
88 1 6 0.0000 -1.0223 -9.4331 -79.8843
89 1 1 1.0000 -0.0116587 -9.16409 -82.274704
90 1 12 0.0000 -2.0195 -4.43957 -79.7844
91 1 16 0.0000 -0.0371293 -3.6166098 -78.976105
92 1 12 0.0000 -4.9073 -3.37479 -82.3443
93 1 2 0.0000 -5.95753 -1.1703299 -79.7106
94 1 11 0.0000 -8.88278 -3.9400399 -78.3175
95 1 11 0.0000 -7.8454103 1.2745 -79.7483
96 1 7 0.0000 -9.97562 3.4779 -77.0935
97 1 6 0.0000 -11.7416 2.09823 -75.156395
98 1 12 0.0000 -8.2445 6.2230597 -77.412
99 1 2 0.0000 -7.6813 5.88451 -81.0018
100 1 10 0.0000 -7.27211 8.12755 -83.1534
101 1 10 0.0000 -5.974 8.46362 -85.4966
102 1 10 0.0000 -7.0943203 10.633699 -84.0918
103 1 2 0.0000 -4.4026604 4.00181 -82.655
104 1 16 0.0000 -5.44069 2.16396 -84.2181
105 1 2 0.0000 -1.6057501 5.6264 -82.421196
106 1 14 0.0000 -3.04791 8.10849 -80.9261
107 1 14 0.0000 -4.59989 9.92887 -79.1689
108 1 15 0.0000 -3.1742299 10.9051 -81.0089
109 1 2 0.0000 -0.84382105 4.77706 -85.86021
110 1 16 0.0000 -1.69045 6.03877 -88.090805
111 1 4 0.0000 1.8030701 2.44787 -86.031
112 1 3 -1.0000 2.1842198 1.6731 -88.7881
113 1 7 0.0000 2.36742 2.23296 -82.75951
114 1 12 0.0000 -0.63609195 0.67241496 -82.0449
115 1 2 0.0000 0.048358798 1.23869 -78.8866
116 1 12 0.0000 0.0499977 -2.05933 -84.057304
117 1 6 0.0000 -2.34997 -1.07791 -86.4878
118 1 1 1.0000 -2.34145 0.95938694 -88.9606
119 1 9 0.0000 2.75206 -3.3080802 -83.0917
120 1 2 0.0000 3.93464 -3.39316 -86.3152
121 1 2 0.0000 5.0039396 -4.77388 -80.8352
122 1 6 0.0000 8.53376 -4.58112 -80.9484
123 1 1 1.0000 10.935 -5.5091705 -78.8808
124 1 2 0.0000 4.08094 -7.1504 -79.6838
125 1 2 0.0000 2.39204 -7.5971403 -76.982
126 1 8 0.0000 2.69025 -10.5687 -76.295
127 1 2 0.0000 -0.319936 -7.5034704 -74.653404
128 1 16 0.0000 -1.51951 -9.87406 -75.1521
129 1 2 0.0000 -1.39834 -8.26474 -69.9953
130 1 14 0.0000 -1.15863 -4.93144 -70.4121
131 1 17 0.0000 -0.250102 -2.7727299 -71.2953
132 1 10 0.0000 0.241964 -4.79184 -72.7124
133 1 10 0.0000 1.37425 -2.75512 -73.5064
134 1 2 0.0000 0.497748 -9.1098 -67.5479
135 1 6 0.0000 2.7615 -11.6891 -67.346
136 1 1 1.0000 4.6736403 -11.9074 -65.565
137 1 4 0.0000 2.44434 -6.8534603 -66.3134
138 1 3 -1.0000 5.2545795 -7.8645496 -62.897
139 1 4 0.0000 5.14281 -7.74203 -67.8193
140 1 3 -1.0000 6.01412 -7.89418 -63.4103
141 1 4 0.0000 4.65068 -6.17086 -70.6485
142 1 16 0.0000 4.24686 -7.99434 -72.430504
143 1 12 0.0000 4.64912 -3.37459 -69.2479
144 1 8 0.0000 3.72311 -0.237093 -69.935295
145 1 9 0.0000 7.8003597 -3.39503 -68.6877
146 1 13 0.0000 9.67767 -5.93338 -66.5226
147 1 9 0.0000 8.94022 -3.64382 -71.6964
148 1 3 -1.0000 11.9116 -4.0187798 -74.3316
149 1 9 0.0000 7.6704698 -0.60398704 -72.4463
150 1 14 0.0000 5.0723796 0.72323096 -74.5136
151 1 14 0.0000 3.9304101 2.6402802 -76.2349
152 1 15 0.0000 2.50907 1.4356799 -74.4902
153 1 12 0.0000 9.46755 1.59634 -71.7135
154 1 8 0.0000 7.33819 3.57213 -69.9161
155 1 12 0.0000 12.5037 0.95299304 -72.302795
156 1 3 -1.0000 15.851801 0.051296 -70.8026
157 1 2 0.0000 13.1140995 3.5201697 -74.2027
158 1 2 0.0000 16.110899 4.47234 -73.896194
159 1 7 0.0000 10.001499 3.3691702 -75.8513
160 1 6 0.0000 8.15803 4.86975 -74.5332
161 1 12 0.0000 11.349899 3.00552 -78.6806
162 1 6 0.0000 13.1066 6.01682 -78.0053
163 1 1 1.0000 12.705601 8.913549 -79.1364
164 1 12 0.0000 11.4529 -0.287571 -78.315704
165 1 6 0.0000 14.8015995 -0.26472098 -77.7979
166 1 1 1.0000 15.4475 -0.88292706 -75.2685
167 1 12 0.0000 8.47 -0.66500795 -77.7706
168 1 14 0.0000 7.6024504 -3.19207 -76.435
169 1 14 0.0000 4.8333697 -3.87114 -75.7067
170 1 15 0.0000 7.0128603 -5.39569 -75.4511
171 1 2 0.0000 6.3321695 0.463998 -79.7228
172 1 8 0.0000 3.83041 -0.73993695 -79.362
173 1 7 0.0000 6.77458 0.344999 -83.555405
174 1 6 0.0000 8.52151 -1.57717 -85.1095
175 1 12 0.0000 8.5627 2.94842 -82.9756
176 1 2 0.0000 6.21089 4.39145 -80.54459
177 1 16 0.0000 6.58982 6.0453396 -78.779205
178 1 2 0.0000 4.27152 6.44089 -83.4945
179 1 6 0.0000 6.3526397 5.3775196 -85.6878
180 1 1 1.0000 6.3531704 3.33386 -87.7968
181 1 2 0.0000 2.6996698 8.63146 -83.335
182 1 13 0.0000 2.26422 9.0867 -87.247604
183 1 2 0.0000 3.2431998 10.8706 -80.877106
184 1 8 0.0000 1.5053401 13.478001 -81.1732
185 1 2 0.0000 5.01298 11.0115 -77.7727
186 1 10 0.0000 3.28822 13.6101 -76.9599
187 1 10 0.0000 4.30273 15.8961 -75.4677
188 1 10 0.0000 1.79916 15.3668995 -75.689705
189 1 11 0.0000 7.6389403 10.5093 -76.167694
190 1 2 0.0000 9.51311 9.305221 -73.3794
191 1 2 0.0000 11.467 7.96663 -71.3206
192 1 8 0.0000 12.7005005 10.155601 -69.7295
193 1 2 0.0000 11.7459 4.7732697 -68.7268
194 1 6 0.0000 14.674799 5.1813602 -69.081604
195 1 1 1.0000 16.791399 3.92962 -68.351105
196 1 2 0.0000 15.504399 1.41289 -65.738304
197 1 6 0.0000 18.0593 2.49032 -63.632103
198 1 1 1.0000 17.4145 3.73548 -61.096
199 1 4 0.0000 14.3894005 -1.07184 -63.5708
200 1 6 0.0000 12.028399 -3.83247 -62.241997
201 1 1 1.0000 9.13267 -5.21976 -61.948097
202 1 4 0.0000 13.0471 0.89354205 -61.633904
203 1 16 0.0000 12.101801 0.141016 -59.3778
204 1 4 0.0000 12.161699 3.19092 -64.0483
205 1 3 -1.0000 15.0522995 6.0338597 -64.6324
206 1 4 0.0000 10.362999 0.998671 -65.7849
207 1 7 0.0000 12.1765995 -1.11427 -67.6843
208 1 1 1.0000 13.4029 -3.62136 -69.9868
209 1 7 0.0000 8.87841 -0.0918345 -63.276802
210 1 3 -1.0000 7.3446503 -1.67499 -59.666
211 1 7 0.0000 7.31165 2.52905 -62.2728
212 1 3 -1.0000 6.10276 -0.237628 -59.8748
213 1 7 0.0000 5.79495 2.7627997 -65.1009
214 1 8 0.0000 6.9792995 5.72017 -65.5858
215 1 7 0.0000 4.35606 -0.00013323 -65.0688
216 1 8 0.0000 5.1507597 -2.8183298 -64.9341
217 1 13 0.0000 2.53267 0.736241 -62.354202
218 1 7 0.0000 0.842596 3.0714602 -63.5393
219 1 14 0.0000 1.40255 5.56948 -65.4561
220 1 14 0.0000 2.4226599 6.71117 -68.1346
221 1 15 0.0000 0.844371 7.97291 -65.9167
222 1 7 0.0000 -0.689468 0.90378594 -65.628
223 1 8 0.0000 0.42484102 -2.0896502 -66.6959
224 1 7 0.0000 -1.8612701 -1.01643 -63.0143
225 1 6 0.0000 0.585021 -3.6729403 -62.2287
226 1 1 1.0000 3.50858 -3.8889399 -61.0129
227 1 9 0.0000 -3.23744 1.5954199 -61.6743
228 1 6 0.0000 -2.8369298 1.7784 -58.2004
229 1 1 1.0000 -4.3697 2.02887 -55.9932
230 1 7 0.0000 -5.38764 2.15165 -64.0448
231 1 9 0.0000 -6.7995696 -0.465518 -64.1767
232 1 16 0.0000 -8.57361 -1.2986801 -66.0815
233 1 9 0.0000 -7.94498 -0.46760297 -61.206898
234 1 2 0.0000 -7.1069403 -1.7357001 -58.352898
235 1 3 -1.0000 -7.4733 2.81551 -60.3981
236 1 3 -1.0000 -7.8331604 4.51415 -57.653

Bonds

1 1 1 2
2 1 31 33
3 1 33 34
4 1 34 36
5 1 36 38
6 1 38 42
7 1 42 44
8 1 44 46
9 1 46 48
10 1 48 51
11 1 51 52
12 1 52 53
13 1 53 56
14 1 56 60
15 1 60 63
16 1 63 65
17 1 65 66
18 1 66 68
19 1 68 70
20 1 70 72
21 1 72 76
22 1 76 77
23 1 77 79
24 1 79 83
25 1 83 84
26 1 84 87
27 1 87 90
28 1 90 92
29 1 92 93
30 1 93 95
31 1 95 96
32 1 96 98
33 1 98 99
34 1 99 103
35 1 103 105
36 1 105 109
37 1 121 124
38 1 124 125
39 1 125 127
40 1 127 129
41 1 129 134
42 1 153 155
43 1 155 157
44 1 171 173
45 1 173 175
46 1 175 176
47 1 176 178
48 1 178 181
49 1 181 183
50 1 183 185
51 1 185 189
52 1 189 190
53 1 190 191
54 1 191 193
55 1 193 196
56 2 2 3
57 3 6 7
58 4 8 9
59 5 9 10
60 4 12 13
61 5 13 14
62 4 15 16
63 5 16 17
64 6 20 21
65 3 26 27
66 4 28 29
67 5 29 30
68 6 31 32
69 3 34 35
70 6 36 37
71 2 38 39
72 3 46 47
73 4 48 49
74 5 49 50
75 4 53 54
76 5 54 55
77 2 56 57
78 4 60 61
79 5 61 62
80 7 66 67
81 8 68 69
82 9 70 71
83 2 72 73
84 9 77 78
85 6 79 80
86 4 84 85
87 10 85 86
88 4 87 88
89 5 88 89
90 3 93 94
91 7 96 97
92 6 99 100
93 8 105 106
94 2 111 112
95 8 114 115
96 4 116 117
97 5 117 118
98 8 119 120
99 4 121 122
100 5 122 123
101 11 129 130
102 4 134 135
103 5 135 136
104 3 137 138
105 3 139 140
106 9 143 144
107 12 145 146
108 3 147 148
109 8 149 150
110 9 153 154
111 3 155 156
112 8 157 158
113 7 159 160
114 4 161 162
115 5 162 163
116 4 164 165
117 5 165 166
118 8 167 168
119 7 173 174
120 4 178 179
121 5 179 180
122 12 181 182
123 6 185 186
124 4 193 194
125 5 194 195
126 4 196 197
127 5 197 198
128 4 199 200
129 5 200 201
130 3 204 205
131 4 206 207
132 10 207 208
133 3 209 210
134 2 211 212
135 9 213 214
136 8 218 219
137 9 222 223
138 4 224 225
139 5 225 226
140 4 227 228
141 5 228 229
142 8 233 234
143 3 235 236
144 13 2 4
145 14 4 6
146 14 6 8
147 14 8 11
148 14 11 12
149 14 12 15
150 14 15 18
151 14 18 20
152 14 20 24
153 14 24 26
154 14 26 28
155 13 28 31
156 13 109 111
157 14 111 113
158 14 113 114
159 14 114 116
160 14 116 119
161 13 119 121
162 13 134 137
163 14 137 139
164 14 139 141
165 14 141 143
166 14 143 145
167 14 145 147
168 14 147 149
169 13 149 153
170 13 157 159
171 14 159 161
172 14 161 164
173 14 164 167
174 13 167 171
175 13 196 199
176 14 199 202
177 14 202 204
178 14 204 206
179 14 206 209
180 14 209 211
181 14 211 213
182 14 213 215
183 14 215 217
184 14 217 218
185 14 218 222
186 14 222 224
187 14 224 227
188 14 227 230
189 14 230 231
190 14 231 233
191 13 233 235
192 15 4 5
193 14 18 19
194 16 21 22
195 16 21 23
196 16 22 23
197 15 24 25
198 16 39 40
199 16 39 41
200 16 40 41
201 17 42 43
202 15 44 45
203 16 57 58
204 16 57 59
205 16 58 59
206 17 63 64
207 16 73 74
208 16 73 75
209 16 74 75
210 16 80 81
211 16 80 82
212 16 81 82
213 17 90 91
214 16 100 101
215 16 100 102
216 16 101 102
217 17 103 104
218 16 106 107
219 16 106 108
220 16 107 108
221 17 109 110
222 14 125 126
223 17 127 128
224 16 130 131
225 16 130 132
226 16 131 132
227 16 131 133
228 16 132 133
229 17 141 142
230 16 150 151
231 16 150 152
232 16 151 152
233 16 168 169
234 16 168 170
235 16 169 170
236 14 171 172
237 17 176 177
238 14 183 184
239 16 186 187
240 16 186 188
241 16 187 188
242 14 191 192
243 17 202 203
244 14 215 216
245 16 219 220
246 16 219 221
247 16 220 221
248 17 231 232

Angles

1 1 1 2 4
2 1 2 4 6
3 2 4 6 8
4 2 6 8 11
5 2 8 11 12
6 2 11 12 15
7 2 12 15 18
8 2 15 18 20
9 2 18 20 24
10 2 20 24 26
11 2 24 26 28
12 3 26 28 31
13 3 28 31 33
14 3 31 33 34
15 3 33 34 36
16 3 34 36 38
17 3 36 38 42
18 1 38 42 44
19 1 42 44 46
20 3 44 46 48
21 3 46 48 51
22 3 48 51 52
23 3 51 52 53
24 1 52 53 56
25 1 53 56 60
26 1 56 60 63
27 1 60 63 65
28 4 63 65 66
29 1 65 66 68
30 1 66 68 70
31 3 68 70 72
32 3 70 72 76
33 3 72 76 77
34 3 76 77 79
35 3 77 79 83
36 3 79 83 84
37 3 83 84 87
38 3 84 87 90
39 3 87 90 92
40 3 90 92 93
41 3 92 93 95
42 1 93 95 96
43 3 95 96 98
44 3 96 98 99
45 3 98 99 103
46 1 99 103 105
47 1 103 105 109
48 1 105 109 111
49 1 109 111 113
50 2 111 113 114
51 2 113 114 116
52 2 114 116 119
53 1 116 119 121
54 1 119 121 124
55 1 121 124 125
56 1 124 125 127
57 1 125 127 129
58 1 127 129 134
59 1 129 134 137
60 4 134 137 139
61 2 137 139 141
62 2 139 141 143
63 2 141 143 145
64 2 143 145 147
65 2 145 147 149
66 3 147 149 153
67 3 149 153 155
68 3 153 155 157
69 3 155 157 159
70 5 157 159 161
71 5 159 161 164
72 2 161 164 167
73 4 164 167 171
74 4 167 171 173
75 3 171 173 175
76 3 173 175 176
77 3 175 176 178
78 1 176 178 181
79 1 178 181 183
80 1 181 183 185
81 1 183 185 189
82 1 185 189 190
83 1 189 190 191
84 1 190 191 193
85 1 191 193 196
86 1 193 196 199
87 4 196 199 202
88 2 199 202 204
89 2 202 204 206
90 2 204 206 209
91 2 206 209 211
92 2 209 211 213
93 2 211 213 215
94 2 213 215 217
95 2 215 217 218
96 2 217 218 222
97 2 218 222 224
98 2 222 224 227
99 2 224 227 230
100 2 227 230 231
101 2 230 231 233
102 1 231 233 235
103 6 1 2 3
104 6 2 4 5
105 6 4 6 7
106 6 6 8 9
107 6 11 12 13
108 6 12 15 16
109 6 15 18 19
110 6 18 20 21
111 6 20 24 25
112 6 24 26 27
113 6 26 28 29
114 6 28 31 32
115 6 33 34 35
116 6 34 36 37
117 6 36 38 39
118 6 38 42 43
119 6 42 44 45
120 6 44 46 47
121 6 46 48 49
122 6 52 53 54
123 6 53 56 57
124 6 56 60 61
125 6 60 63 64
126 6 65 66 67
127 6 66 68 69
128 6 68 70 71
129 6 70 72 73
130 6 76 77 78
131 6 77 79 80
132 6 83 84 85
133 6 84 87 88
134 6 87 90 91
135 6 92 93 94
136 6 95 96 97
137 6 98 99 100
138 6 99 103 104
139 6 103 105 106
140 6 105 109 110
141 6 109 111 112
142 6 113 114 115
143 6 114 116 117
144 6 116 119 120
145 6 119 121 122
146 6 124 125 126
147 6 125 127 128
148 6 127 129 130
149 6 129 134 135
150 6 134 137 138
151 6 137 139 140
152 6 139 141 142
153 6 141 143 144
154 6 143 145 146
155 6 145 147 148
156 6 147 149 150
157 6 149 153 154
158 6 153 155 156
159 6 155 157 158
160 6 157 159 160
161 6 159 161 162
162 6 161 164 165
163 6 164 167 168
164 6 167 171 172
165 6 171 173 174
166 6 175 176 177
167 6 176 178 179
168 6 178 181 182
169 6 181 183 184
170 6 183 185 186
171 6 190 191 192
172 6 191 193 194
173 6 193 196 197
174 6 196 199 200
175 6 199 202 203
176 6 202 204 205
177 6 204 206 207
178 6 206 209 210
179 6 209 211 212
180 6 211 213 214
181 6 213 215 216
182 6 217 218 219
183 6 218 222 223
184 6 222 224 225
185 6 224 227 228
186 6 230 231 232
187 6 231 233 234
188 6 233 235 236
189 7 8 9 10
190 7 12 13 14
191 7 15 16 17
192 8 20 21 22
193 8 20 21 23
194 7 28 29 30
195 8 38 39 40
196 8 38 39 41
197 7 48 49 50
198 7 53 54 55
199 8 56 57 58
200 8 56 57 59
201 7 60 61 62
202 8 72 73 74
203 8 72 73 75
204 8 79 80 81
205 8 79 80 82
206 7 84 85 86
207 7 87 88 89
208 8 99 100 101
209 8 99 100 102
210 8 105 106 107
211 8 105 106 108
212 7 116 117 118
213 7 121 122 123
214 9 129 130 131
215 10 129 130 132
216 7 134 135 136
217 8 149 150 151
218 8 149 150 152
219 7 161 162 163
220 7 164 165 166
221 8 167 168 169
222 8 167 168 170
223 7 178 179 180
224 8 185 186 187
225 8 185 186 188
226 7 193 194 195
227 7 196 197 198
228 7 199 200 201
229 7 206 207 208
230 8 218 219 220
231 8 218 219 221
232 7 224 225 226
233 7 227 228 229

Dihedrals

1 1 4 6 8 11
2 1 6 8 11 12
3 1 8 11 12 15
4 1 11 12 15 18
5 1 12 15 18 20
6 1 15 18 20 24
7 1 18 20 24 26
8 1 20 24 26 28
9 1 111 113 114 116
10 1 113 114 116 119
11 1 137 139 141 143
12 1 139 141 143 145
13 1 141 143 145 147
14 1 143 145 147 149
15 1 159 161 164 167
16 1 199 202 204 206
17 1 202 204 206 209
18 1 204 206 209 211
19 1 206 209 211 213
20 1 209 211 213 215
21 1 211 213 215 217
22 1 213 215 217 218
23 1 215 217 218 222
24 1 217 218 222 224
25 1 218 222 224 227
26 1 222 224 227 230
27 1 224 227 230 231
28 1 227 230 231 233

Impropers

1 1 20 22 23 21
2 1 38 40 41 39
3 1 56 58 59 57
4 1 72 74 75 73
5 1 79 81 82 80
6 1 99 101 102 100
7 1 105 107 108 106
8 1 129 131 132 130
9 2 130 131 133 132
10 1 149 151 152 150
11 1 167 169 170 168
12 1 185 187 188 186
13 1 218 220 221 219

