comment

236 atoms
248 bonds
233 angles
28 dihedrals
13 impropers

17 atom types
17 bond types
10 angle types
1 dihedral types
2 improper types

-40.5 40.5 xlo xhi
-40.5 40.5 ylo yhi
-190.0 190.0 zlo zhi

Masses

1 72.0
2 72.0
3 72.0
4 72.0
5 72.0
6 72.0
7 72.0
8 72.0
9 72.0
10 45.0
11 72.0
12 72.0
13 72.0
14 45.0
15 45.0
16 72.0
17 45.0

PairIJ Coeffs

1 1 1.19503 4.699999999999999
1 2 1.3384336 4.699999999999999
1 3 1.3384336 4.699999999999999
1 4 0.956024 4.699999999999999
1 5 0.478012 4.699999999999999
1 6 0.5497137999999999 4.699999999999999
1 7 0.836521 4.699999999999999
1 8 0.478012 4.699999999999999
1 9 1.19503 4.699999999999999
1 10 0.7409186 4.699999999999999
1 11 1.3384336 4.699999999999999
1 12 1.19503 4.699999999999999
1 13 0.7409186 4.699999999999999
1 14 0.6453162 4.699999999999999
1 15 1.19503 4.699999999999999
1 16 1.19503 4.699999999999999
1 17 0.956024 4.699999999999999
2 2 1.3384336 4.699999999999999
2 3 1.3384336 4.699999999999999
2 4 1.19503 4.699999999999999
2 5 0.5497137999999999 4.699999999999999
2 6 0.6453162 4.699999999999999
2 7 0.836521 4.699999999999999
2 8 0.478012 4.699999999999999
2 9 1.19503 4.699999999999999
2 10 0.7409186 4.699999999999999
2 11 1.3384336 4.699999999999999
2 12 1.19503 4.699999999999999
2 13 0.7409186 4.699999999999999
2 14 0.6453162 4.699999999999999
2 15 1.3384336 4.699999999999999
2 16 1.3384336 4.699999999999999
2 17 1.19503 4.699999999999999
3 3 1.19503 4.699999999999999
3 4 1.19503 4.699999999999999
3 5 0.478012 4.699999999999999
3 6 0.5497137999999999 4.699999999999999
3 7 0.836521 4.699999999999999
3 8 0.478012 4.699999999999999
3 9 0.956024 4.699999999999999
3 10 0.7409186 4.699999999999999
3 11 1.3384336 4.699999999999999
3 12 1.19503 4.699999999999999
3 13 0.7409186 4.699999999999999
3 14 0.6453162 4.699999999999999
3 15 1.19503 4.699999999999999
3 16 1.19503 4.699999999999999
3 17 1.19503 4.699999999999999
4 4 0.956024 4.699999999999999
4 5 0.6453162 4.699999999999999
4 6 0.6453162 4.699999999999999
4 7 0.836521 4.699999999999999
4 8 0.6453162 4.699999999999999
4 9 1.075527 4.699999999999999
4 10 0.836521 4.699999999999999
4 11 0.956024 4.699999999999999
4 12 1.075527 4.699999999999999
4 13 0.836521 4.699999999999999
4 14 0.7409186 4.699999999999999
4 15 1.075527 4.699999999999999
4 16 1.075527 4.699999999999999
4 17 0.956024 4.699999999999999
5 5 0.836521 4.699999999999999
5 6 0.836521 4.699999999999999
5 7 0.7409186 4.699999999999999
5 8 0.836521 4.699999999999999
5 9 0.6453162 4.699999999999999
5 10 0.7409186 4.699999999999999
5 11 0.5497137999999999 4.699999999999999
5 12 0.6453162 4.699999999999999
5 13 0.7409186 4.699999999999999
5 14 0.7409186 4.699999999999999
5 15 0.7409186 4.699999999999999
5 16 0.7409186 4.699999999999999
5 17 0.6453162 4.699999999999999
6 6 0.836521 4.699999999999999
6 7 0.836521 4.699999999999999
6 8 0.836521 4.699999999999999
6 9 0.6453162 4.699999999999999
6 10 0.836521 4.699999999999999
6 11 0.6453162 4.699999999999999
6 12 0.6453162 4.699999999999999
6 13 0.836521 4.699999999999999
6 14 0.836521 4.699999999999999
6 15 0.836521 4.699999999999999
6 16 0.836521 4.699999999999999
6 17 0.6453162 4.699999999999999
7 7 0.836521 4.699999999999999
7 8 0.6453162 4.699999999999999
7 9 0.836521 4.699999999999999
7 10 0.836521 4.699999999999999
7 11 0.836521 4.699999999999999
7 12 0.836521 4.699999999999999
7 13 0.836521 4.699999999999999
7 14 0.836521 4.699999999999999
7 15 0.956024 4.699999999999999
7 16 0.956024 4.699999999999999
7 17 0.836521 4.699999999999999
8 8 0.836521 4.699999999999999
8 9 0.6453162 4.699999999999999
8 10 0.7409186 4.699999999999999
8 11 0.478012 4.699999999999999
8 12 0.6453162 4.699999999999999
8 13 0.7409186 4.699999999999999
8 14 0.7409186 4.699999999999999
8 15 0.6453162 4.699999999999999
8 16 0.6453162 4.699999999999999
8 17 0.6453162 4.699999999999999
9 9 0.956024 4.699999999999999
9 10 0.836521 4.699999999999999
9 11 0.956024 4.699999999999999
9 12 1.075527 4.699999999999999
9 13 0.836521 4.699999999999999
9 14 0.7409186 4.699999999999999
9 15 1.075527 4.699999999999999
9 16 1.075527 4.699999999999999
9 17 1.075527 4.699999999999999
10 10 0.62739075 4.3
10 11 0.7409186 4.699999999999999
10 12 0.836521 4.699999999999999
10 13 0.836521 4.699999999999999
10 14 0.62739075 4.3
10 15 0.62739075 4.3
10 16 0.836521 4.699999999999999
10 17 0.62739075 4.3
11 11 1.19503 4.699999999999999
11 12 0.956024 4.699999999999999
11 13 0.7409186 4.699999999999999
11 14 0.6453162 4.699999999999999
11 15 1.075527 4.699999999999999
11 16 1.075527 4.699999999999999
11 17 0.956024 4.699999999999999
12 12 1.075527 4.699999999999999
12 13 0.836521 4.699999999999999
12 14 0.7409186 4.699999999999999
12 15 1.075527 4.699999999999999
12 16 1.075527 4.699999999999999
12 17 1.075527 4.699999999999999
13 13 0.836521 4.699999999999999
13 14 0.836521 4.699999999999999
13 15 0.836521 4.699999999999999
13 16 0.836521 4.699999999999999
13 17 0.836521 4.699999999999999
14 14 0.62739075 4.3
14 15 0.62739075 4.3
14 16 0.836521 4.699999999999999
14 17 0.5556889500000001 4.3
15 15 0.80664525 4.3
15 16 1.075527 4.699999999999999
15 17 0.80664525 4.3
16 16 1.075527 4.699999999999999
16 17 1.075527 4.699999999999999
17 17 0.7170179999999999 4.3

Bond Coeffs

1 1.4937875 3.5
2 8.962725 3.2
3 5.97515 4.0
4 5.97515 3.3000000000000003
5 5.97515 2.8000000000000003
6 8.962725 3.1
7 8.962725 3.0
8 5.97515 3.2
9 8.962725 3.3000000000000003
10 5.97515 3.4000000000000004
11 5.97515 3.0
12 2.987575 4.0
13 11.9503 3.3000000000000003
14 11.9503 3.1
15 11.9503 2.6500000000000004
16 11.9503 2.7
17 11.9503 2.6

Angle Coeffs

1 2.39006 127
2 83.6521 96
3 2.39006 100
4 2.39006 130
5 11.9503 98
6 2.987575 100
7 2.987575 180
8 5.97515 150
9 5.97515 210
10 5.97515 90

Dihedral Coeffs

1 95.6024 1 -120 0

Improper Coeffs

1 5.97515 0
2 23.9006 0

Atoms

1 1 1 1.0000 1.2549999 -0.027 -48.818
2 1 2 0.0000 0.145492 0.183673 -51.437996
3 1 3 -1.0000 -1.3241801 -1.01887 -53.7113
4 1 4 0.0000 1.94083 2.05469 -54.3251
5 1 5 0.0000 2.7739902 0.839827 -56.5266
6 1 4 0.0000 1.58719 5.46917 -54.6722
7 1 3 -1.0000 -2.29786 6.08139 -55.682102
8 1 4 0.0000 4.29707 6.18587 -56.600098
9 1 6 0.0000 7.36582 4.53857 -56.1076
10 1 1 1.0000 7.96997 2.26257 -56.619904
11 1 4 0.0000 3.6342099 5.1480503 -59.6039
12 1 7 0.0000 1.5157101 7.54348 -60.4957
13 1 6 0.0000 -1.57789 6.81813 -61.072998
14 1 1 1.0000 -4.65307 6.56163 -60.1693
15 1 7 0.0000 3.5729198 9.89476 -59.944
16 1 6 0.0000 2.28381 11.391 -57.8301
17 1 1 1.0000 0.00320236 10.183001 -56.0828
18 1 7 0.0000 5.93378 9.22699 -62.087303
19 1 8 0.0000 8.29408 7.9276 -60.8181
20 1 9 0.0000 4.5348 9.929239 -64.6489
21 1 10 0.0000 5.5340805 9.238359 -67.4798
22 1 10 0.0000 5.2514796 9.30116 -70.1831
23 1 10 0.0000 7.6677504 9.142779 -69.116905
24 1 9 0.0000 3.4864597 12.9072 -63.873703
25 1 5 0.0000 1.63306 14.185801 -64.348305
26 1 9 0.0000 6.49333 14.1643 -63.1073
27 1 11 0.0000 4.86401 17.6634 -64.902405
28 1 9 0.0000 7.9036403 13.5226 -65.6102
29 1 6 0.0000 10.1208 10.777399 -64.9004
30 1 1 1.0000 11.771999 8.59909 -65.461205
31 1 12 0.0000 6.65138 14.1393 -69.1244
32 1 13 0.0000 8.98835 13.807 -71.477295
33 1 7 0.0000 4.32869 14.3962 -69.847595
34 1 12 0.0000 1.55771 12.3634 -68.561005
35 1 11 0.0000 -0.68010396 16.111 -68.5645
36 1 12 0.0000 -0.220419 12.252501 -71.4066
37 1 13 0.0000 -1.25891 15.0951 -71.5224
38 1 2 0.0000 -0.53017503 8.65111 -71.7129
39 1 14 0.0000 1.9869199 7.51042 -72.8979
40 1 15 0.0000 3.20737 5.48242 -72.4195
41 1 15 0.0000 4.14793 7.34561 -74.067604
42 1 2 0.0000 -4.41585 7.7750597 -71.4143
43 1 16 0.0000 -4.80851 8.07537 -73.9487
44 1 2 0.0000 -4.92532 7.07156 -68.9336
45 1 5 0.0000 -3.4625802 5.54635 -67.3566
46 1 2 0.0000 -7.6157804 6.48786 -65.1902
47 1 3 -1.0000 -5.5296702 9.526 -63.5466
48 1 12 0.0000 -11.458401 4.0092 -64.5346
49 1 6 0.0000 -12.062 2.60365 -61.367897
50 1 1 1.0000 -11.6084 1.91563 -58.6286
51 1 12 0.0000 -12.540501 6.1215696 -67.7171
52 1 2 0.0000 -9.79015 7.6699 -67.3089
53 1 2 0.0000 -10.6852 10.7549 -66.1972
54 1 6 0.0000 -11.0209 9.38054 -63.2979
55 1 1 1.0000 -9.58568 7.57214 -61.013798
56 1 2 0.0000 -8.99475 12.0254 -70.0042
57 1 14 0.0000 -10.4582 9.33094 -71.4454
58 1 15 0.0000 -9.70156 7.04978 -72.333496
59 1 15 0.0000 -12.2556 7.8148403 -72.656296
60 1 2 0.0000 -5.4049597 12.718901 -71.6854
61 1 6 0.0000 -4.1578903 12.245399 -68.7873
62 1 1 1.0000 -3.28051 12.5873995 -65.946396
63 1 2 0.0000 -3.60731 12.8368 -75.4127
64 1 16 0.0000 -2.9468 14.970301 -76.9001
65 1 2 0.0000 -0.555136 10.6646 -76.6544
66 1 11 0.0000 0.35314 7.9806 -77.3276
67 1 6 0.0000 1.86206 6.6039505 -79.379
68 1 2 0.0000 -1.4761101 4.71767 -75.491196
69 1 2 0.0000 -4.07842 4.06472 -77.0533
70 1 2 0.0000 -2.22589 2.30692 -72.6862
71 1 8 0.0000 -0.191109 3.34478 -70.4708
72 1 12 0.0000 -6.10415 2.53669 -74.288605
73 1 14 0.0000 -7.1588497 3.18327 -71.571495
74 1 15 0.0000 -9.61344 2.9276001 -70.3051
75 1 15 0.0000 -7.3817596 2.70792 -68.9495
76 1 12 0.0000 -7.78539 -1.09944 -73.641
77 1 2 0.0000 -5.39239 -2.0722702 -70.925995
78 1 8 0.0000 -4.29269 -0.622878 -68.5555
79 1 12 0.0000 -5.71543 -5.26898 -69.9933
80 1 10 0.0000 -4.7473497 -5.82954 -67.0288
81 1 10 0.0000 -2.94943 -5.6565304 -65.3003
82 1 10 0.0000 -4.96235 -7.50077 -64.9104
83 1 12 0.0000 -5.86354 -8.46792 -72.6968
84 1 2 0.0000 -5.86371 -7.4106097 -75.661
85 1 7 0.0000 -4.25942 -4.16364 -75.0517
86 1 1 1.0000 -3.15158 -1.26168 -75.8631
87 1 2 0.0000 -3.66608 -7.61804 -79.204605
88 1 6 0.0000 -0.80261797 -9.27471 -80.0114
89 1 1 1.0000 0.574198 -8.74568 -82.505196
90 1 12 0.0000 -1.77361 -4.12966 -80.10629
91 1 16 0.0000 0.119519 -3.89385 -78.6715
92 1 12 0.0000 -4.49992 -3.23314 -82.3207
93 1 2 0.0000 -6.38921 -1.23184 -79.9591
94 1 11 0.0000 -8.62473 -3.57452 -77.8992
95 1 11 0.0000 -8.37471 1.33814 -79.777
96 1 7 0.0000 -9.899119 4.17247 -77.0783
97 1 6 0.0000 -11.753599 2.9422102 -75.0858
98 1 12 0.0000 -8.46244 6.69327 -77.4569
99 1 2 0.0000 -7.66492 5.5746403 -81.1412
100 1 10 0.0000 -6.8048 8.00718 -82.7768
101 1 10 0.0000 -5.53339 8.72604 -84.9738
102 1 10 0.0000 -7.07169 10.7372 -83.8453
103 1 2 0.0000 -4.56868 3.8365502 -82.4975
104 1 16 0.0000 -5.1604404 1.9206101 -84.2002
105 1 2 0.0000 -1.60781 5.5609603 -82.5315
106 1 14 0.0000 -2.5875301 8.2309 -81.1604
107 1 14 0.0000 -4.5854397 9.81994 -79.4198
108 1 15 0.0000 -2.98004 10.6805 -81.4931
109 1 2 0.0000 -0.127326 4.75344 -85.926704
110 1 16 0.0000 -1.62257 6.15243 -87.5251
111 1 4 0.0000 1.7839199 2.28092 -85.6783
112 1 3 -1.0000 2.4818602 1.51245 -89.0355
113 1 7 0.0000 2.12847 2.15849 -82.9119
114 1 12 0.0000 -0.584343 0.44186997 -82.1935
115 1 2 0.0000 -0.959808 0.981102 -79.5625
116 1 12 0.0000 -0.110860005 -1.93711 -84.0945
117 1 6 0.0000 -2.2632601 -1.39117 -86.493
118 1 1 1.0000 -1.97264 0.427837 -88.2064
119 1 9 0.0000 2.95927 -3.0743399 -83.2825
120 1 2 0.0000 3.98787 -3.6595602 -86.60989
121 1 2 0.0000 5.12154 -4.70343 -81.3935
122 1 6 0.0000 8.464001 -4.7 -80.9209
123 1 1 1.0000 10.5247 -5.3340797 -79.0927
124 1 2 0.0000 4.13624 -6.88607 -79.0912
125 1 2 0.0000 2.62921 -7.5567904 -76.6999
126 1 8 0.0000 2.8980699 -10.4747 -76.2443
127 1 2 0.0000 -0.80152 -7.916 -74.4441
128 1 16 0.0000 -1.4001 -10.2311 -75.1335
129 1 2 0.0000 -1.25982 -7.84617 -70.276596
130 1 14 0.0000 -0.87968 -5.0411396 -70.555405
131 1 17 0.0000 -0.0048169103 -2.79464 -71.426605
132 1 10 0.0000 0.54646397 -4.7562 -73.0976
133 1 10 0.0000 1.4236499 -2.16236 -73.502106
134 1 2 0.0000 0.376896 -8.77699 -67.4271
135 1 6 0.0000 2.47337 -11.6546 -66.634895
136 1 1 1.0000 5.57802 -11.806099 -65.4468
137 1 4 0.0000 2.4618099 -6.62843 -66.2796
138 1 3 -1.0000 5.6475105 -7.6648097 -63.1864
139 1 4 0.0000 5.1013 -7.49456 -67.8748
140 1 3 -1.0000 5.8023796 -7.6244097 -63.3153
141 1 4 0.0000 4.33272 -6.17065 -70.674904
142 1 16 0.0000 3.89534 -8.461121 -72.2913
143 1 12 0.0000 4.46169 -3.0942602 -69.467705
144 1 8 0.0000 3.87946 0.08682349 -69.8731
145 1 9 0.0000 7.74051 -3.42203 -68.5316
146 1 13 0.0000 9.87881 -6.50288 -66.6891
147 1 9 0.0000 8.73125 -3.69789 -71.591705
148 1 3 -1.0000 11.981699 -3.9001102 -74.4535
149 1 9 0.0000 7.5771704 -0.850181 -72.649
150 1 14 0.0000 5.0347195 0.67803 -74.6542
151 1 14 0.0000 4.41183 2.8852499 -76.388794
152 1 15 0.0000 2.5152001 1.64834 -74.8925
153 1 12 0.0000 8.82158 1.4299799 -70.8326
154 1 8 0.0000 7.11225 3.87894 -69.9894
155 1 12 0.0000 11.9739 1.067 -72.417
156 1 3 -1.0000 15.693001 0.418465 -70.6957
157 1 2 0.0000 12.5224 2.94569 -74.2705
158 1 2 0.0000 15.791599 3.98298 -73.7128
159 1 7 0.0000 9.85709 3.48724 -76.1827
160 1 6 0.0000 8.10337 4.93227 -74.5543
161 1 12 0.0000 11.0403 3.09791 -78.8648
162 1 6 0.0000 13.2943 6.1582 -78.1374
163 1 1 1.0000 13.0696 9.1769705 -77.4853
164 1 12 0.0000 11.402201 -0.24691 -78.3132
165 1 6 0.0000 14.5049 -0.0549515 -77.6862
166 1 1 1.0000 15.5691 -1.03289 -75.3463
167 1 12 0.0000 8.53216 -0.74741 -77.7741
168 1 14 0.0000 7.30321 -3.39664 -76.4188
169 1 14 0.0000 5.03375 -3.8530998 -75.191895
170 1 15 0.0000 6.8509603 -5.68984 -75.3553
171 1 2 0.0000 6.22575 0.388861 -79.9587
172 1 8 0.0000 3.99923 -1.00583 -79.0287
173 1 7 0.0000 6.83618 0.70096403 -83.2478
174 1 6 0.0000 8.51854 -1.54523 -84.7515
175 1 12 0.0000 8.72686 3.2308002 -83.3266
176 1 2 0.0000 6.33311 5.2647104 -80.9605
177 1 16 0.0000 6.52917 6.39664 -78.7074
178 1 2 0.0000 4.56644 6.51074 -83.4534
179 1 6 0.0000 6.46568 5.94511 -85.8244
180 1 1 1.0000 5.84512 4.61998 -88.24609
181 1 2 0.0000 2.82907 9.25649 -82.984695
182 1 13 0.0000 2.27609 9.6453 -87.1456
183 1 2 0.0000 2.92876 10.9692 -80.8337
184 1 8 0.0000 1.3566899 13.8387 -81.1353
185 1 2 0.0000 4.59378 10.937901 -77.3815
186 1 10 0.0000 3.60517 13.4671 -76.2799
187 1 10 0.0000 3.98211 16.106499 -75.7861
188 1 10 0.0000 1.72 15.315599 -75.612305
189 1 11 0.0000 7.40303 10.837 -76.1484
190 1 2 0.0000 9.358109 9.55279 -73.7276
191 1 2 0.0000 11.743899 7.77489 -71.563805
192 1 8 0.0000 12.4564 10.517301 -70.1654
193 1 2 0.0000 12.1224 4.47281 -68.6828
194 1 6 0.0000 15.0858 5.2370796 -69.2007
195 1 1 1.0000 17.348501 4.5464 -68.474106
196 1 2 0.0000 15.412101 1.05083 -65.8366
197 1 6 0.0000 18.1234 2.22347 -63.9432
198 1 1 1.0000 17.6963 3.79158 -61.4127
199 1 4 0.0000 14.5692005 -1.09417 -63.5038
200 1 6 0.0000 12.1434 -3.4707599 -62.322002
201 1 1 1.0000 9.06544 -4.59266 -61.9108
202 1 4 0.0000 13.182899 0.947739 -61.5166
203 1 16 0.0000 11.7342 0.175776 -59.461998
204 1 4 0.0000 12.0162 3.2583299 -63.7389
205 1 3 -1.0000 15.2132 6.02586 -64.514
206 1 4 0.0000 10.4543 1.24207 -65.5696
207 1 7 0.0000 11.5164995 -1.02017 -67.4759
208 1 1 1.0000 13.2445 -3.2453701 -69.7375
209 1 7 0.0000 8.86017 -0.278278 -63.5424
210 1 3 -1.0000 6.8283896 -1.35376 -59.629402
211 1 7 0.0000 7.2319 2.16113 -62.305
212 1 3 -1.0000 6.32703 -0.68299705 -59.511497
213 1 7 0.0000 5.7084503 2.64132 -65.274704
214 1 8 0.0000 7.2746096 5.62897 -65.2157
215 1 7 0.0000 4.22687 -0.16671701 -65.064705
216 1 8 0.0000 5.25701 -2.7119498 -64.5403
217 1 13 0.0000 2.4791899 0.93903 -62.1775
218 1 7 0.0000 0.590823 3.11851 -63.831
219 1 14 0.0000 1.7444401 5.40429 -65.53
220 1 14 0.0000 2.3148801 6.6789103 -67.849106
221 1 15 0.0000 0.481349 7.7456098 -66.3001
222 1 7 0.0000 -0.848558 0.77576303 -65.6836
223 1 8 0.0000 0.378236 -2.54431 -66.5933
224 1 7 0.0000 -2.12602 -0.892601 -63.0757
225 1 6 0.0000 0.284625 -3.54861 -61.781403
226 1 1 1.0000 3.22809 -4.1979303 -61.0426
227 1 9 0.0000 -3.41436 1.5741401 -61.7886
228 1 6 0.0000 -2.89027 2.21252 -58.563
229 1 1 1.0000 -4.50767 2.1279402 -56.3265
230 1 7 0.0000 -5.2870703 2.42622 -64.2694
231 1 9 0.0000 -7.01649 -0.39396402 -64.5682
232 1 16 0.0000 -8.9199 -1.06058 -66.425
233 1 9 0.0000 -7.8997803 -0.294019 -61.553303
234 1 2 0.0000 -6.0844803 -2.66823 -60.0396
235 1 3 -1.0000 -7.5314097 2.9297998 -60.2648
236 1 3 -1.0000 -8.31675 4.8144298 -57.4906

Bonds

1 1 1 2
2 1 31 33
3 1 33 34
4 1 34 36
5 1 36 38
6 1 38 42
7 1 42 44
8 1 44 46
9 1 46 48
10 1 48 51
11 1 51 52
12 1 52 53
13 1 53 56
14 1 56 60
15 1 60 63
16 1 63 65
17 1 65 66
18 1 66 68
19 1 68 70
20 1 70 72
21 1 72 76
22 1 76 77
23 1 77 79
24 1 79 83
25 1 83 84
26 1 84 87
27 1 87 90
28 1 90 92
29 1 92 93
30 1 93 95
31 1 95 96
32 1 96 98
33 1 98 99
34 1 99 103
35 1 103 105
36 1 105 109
37 1 121 124
38 1 124 125
39 1 125 127
40 1 127 129
41 1 129 134
42 1 153 155
43 1 155 157
44 1 171 173
45 1 173 175
46 1 175 176
47 1 176 178
48 1 178 181
49 1 181 183
50 1 183 185
51 1 185 189
52 1 189 190
53 1 190 191
54 1 191 193
55 1 193 196
56 2 2 3
57 3 6 7
58 4 8 9
59 5 9 10
60 4 12 13
61 5 13 14
62 4 15 16
63 5 16 17
64 6 20 21
65 3 26 27
66 4 28 29
67 5 29 30
68 6 31 32
69 3 34 35
70 6 36 37
71 2 38 39
72 3 46 47
73 4 48 49
74 5 49 50
75 4 53 54
76 5 54 55
77 2 56 57
78 4 60 61
79 5 61 62
80 7 66 67
81 8 68 69
82 9 70 71
83 2 72 73
84 9 77 78
85 6 79 80
86 4 84 85
87 10 85 86
88 4 87 88
89 5 88 89
90 3 93 94
91 7 96 97
92 6 99 100
93 8 105 106
94 2 111 112
95 8 114 115
96 4 116 117
97 5 117 118
98 8 119 120
99 4 121 122
100 5 122 123
101 11 129 130
102 4 134 135
103 5 135 136
104 3 137 138
105 3 139 140
106 9 143 144
107 12 145 146
108 3 147 148
109 8 149 150
110 9 153 154
111 3 155 156
112 8 157 158
113 7 159 160
114 4 161 162
115 5 162 163
116 4 164 165
117 5 165 166
118 8 167 168
119 7 173 174
120 4 178 179
121 5 179 180
122 12 181 182
123 6 185 186
124 4 193 194
125 5 194 195
126 4 196 197
127 5 197 198
128 4 199 200
129 5 200 201
130 3 204 205
131 4 206 207
132 10 207 208
133 3 209 210
134 2 211 212
135 9 213 214
136 8 218 219
137 9 222 223
138 4 224 225
139 5 225 226
140 4 227 228
141 5 228 229
142 8 233 234
143 3 235 236
144 13 2 4
145 14 4 6
146 14 6 8
147 14 8 11
148 14 11 12
149 14 12 15
150 14 15 18
151 14 18 20
152 14 20 24
153 14 24 26
154 14 26 28
155 13 28 31
156 13 109 111
157 14 111 113
158 14 113 114
159 14 114 116
160 14 116 119
161 13 119 121
162 13 134 137
163 14 137 139
164 14 139 141
165 14 141 143
166 14 143 145
167 14 145 147
168 14 147 149
169 13 149 153
170 13 157 159
171 14 159 161
172 14 161 164
173 14 164 167
174 13 167 171
175 13 196 199
176 14 199 202
177 14 202 204
178 14 204 206
179 14 206 209
180 14 209 211
181 14 211 213
182 14 213 215
183 14 215 217
184 14 217 218
185 14 218 222
186 14 222 224
187 14 224 227
188 14 227 230
189 14 230 231
190 14 231 233
191 13 233 235
192 15 4 5
193 14 18 19
194 16 21 22
195 16 21 23
196 16 22 23
197 15 24 25
198 16 39 40
199 16 39 41
200 16 40 41
201 17 42 43
202 15 44 45
203 16 57 58
204 16 57 59
205 16 58 59
206 17 63 64
207 16 73 74
208 16 73 75
209 16 74 75
210 16 80 81
211 16 80 82
212 16 81 82
213 17 90 91
214 16 100 101
215 16 100 102
216 16 101 102
217 17 103 104
218 16 106 107
219 16 106 108
220 16 107 108
221 17 109 110
222 14 125 126
223 17 127 128
224 16 130 131
225 16 130 132
226 16 131 132
227 16 131 133
228 16 132 133
229 17 141 142
230 16 150 151
231 16 150 152
232 16 151 152
233 16 168 169
234 16 168 170
235 16 169 170
236 14 171 172
237 17 176 177
238 14 183 184
239 16 186 187
240 16 186 188
241 16 187 188
242 14 191 192
243 17 202 203
244 14 215 216
245 16 219 220
246 16 219 221
247 16 220 221
248 17 231 232

Angles

1 1 1 2 4
2 1 2 4 6
3 2 4 6 8
4 2 6 8 11
5 2 8 11 12
6 2 11 12 15
7 2 12 15 18
8 2 15 18 20
9 2 18 20 24
10 2 20 24 26
11 2 24 26 28
12 3 26 28 31
13 3 28 31 33
14 3 31 33 34
15 3 33 34 36
16 3 34 36 38
17 3 36 38 42
18 1 38 42 44
19 1 42 44 46
20 3 44 46 48
21 3 46 48 51
22 3 48 51 52
23 3 51 52 53
24 1 52 53 56
25 1 53 56 60
26 1 56 60 63
27 1 60 63 65
28 4 63 65 66
29 1 65 66 68
30 1 66 68 70
31 3 68 70 72
32 3 70 72 76
33 3 72 76 77
34 3 76 77 79
35 3 77 79 83
36 3 79 83 84
37 3 83 84 87
38 3 84 87 90
39 3 87 90 92
40 3 90 92 93
41 3 92 93 95
42 1 93 95 96
43 3 95 96 98
44 3 96 98 99
45 3 98 99 103
46 1 99 103 105
47 1 103 105 109
48 1 105 109 111
49 1 109 111 113
50 2 111 113 114
51 2 113 114 116
52 2 114 116 119
53 1 116 119 121
54 1 119 121 124
55 1 121 124 125
56 1 124 125 127
57 1 125 127 129
58 1 127 129 134
59 1 129 134 137
60 4 134 137 139
61 2 137 139 141
62 2 139 141 143
63 2 141 143 145
64 2 143 145 147
65 2 145 147 149
66 3 147 149 153
67 3 149 153 155
68 3 153 155 157
69 3 155 157 159
70 5 157 159 161
71 5 159 161 164
72 2 161 164 167
73 4 164 167 171
74 4 167 171 173
75 3 171 173 175
76 3 173 175 176
77 3 175 176 178
78 1 176 178 181
79 1 178 181 183
80 1 181 183 185
81 1 183 185 189
82 1 185 189 190
83 1 189 190 191
84 1 190 191 193
85 1 191 193 196
86 1 193 196 199
87 4 196 199 202
88 2 199 202 204
89 2 202 204 206
90 2 204 206 209
91 2 206 209 211
92 2 209 211 213
93 2 211 213 215
94 2 213 215 217
95 2 215 217 218
96 2 217 218 222
97 2 218 222 224
98 2 222 224 227
99 2 224 227 230
100 2 227 230 231
101 2 230 231 233
102 1 231 233 235
103 6 1 2 3
104 6 2 4 5
105 6 4 6 7
106 6 6 8 9
107 6 11 12 13
108 6 12 15 16
109 6 15 18 19
110 6 18 20 21
111 6 20 24 25
112 6 24 26 27
113 6 26 28 29
114 6 28 31 32
115 6 33 34 35
116 6 34 36 37
117 6 36 38 39
118 6 38 42 43
119 6 42 44 45
120 6 44 46 47
121 6 46 48 49
122 6 52 53 54
123 6 53 56 57
124 6 56 60 61
125 6 60 63 64
126 6 65 66 67
127 6 66 68 69
128 6 68 70 71
129 6 70 72 73
130 6 76 77 78
131 6 77 79 80
132 6 83 84 85
133 6 84 87 88
134 6 87 90 91
135 6 92 93 94
136 6 95 96 97
137 6 98 99 100
138 6 99 103 104
139 6 103 105 106
140 6 105 109 110
141 6 109 111 112
142 6 113 114 115
143 6 114 116 117
144 6 116 119 120
145 6 119 121 122
146 6 124 125 126
147 6 125 127 128
148 6 127 129 130
149 6 129 134 135
150 6 134 137 138
151 6 137 139 140
152 6 139 141 142
153 6 141 143 144
154 6 143 145 146
155 6 145 147 148
156 6 147 149 150
157 6 149 153 154
158 6 153 155 156
159 6 155 157 158
160 6 157 159 160
161 6 159 161 162
162 6 161 164 165
163 6 164 167 168
164 6 167 171 172
165 6 171 173 174
166 6 175 176 177
167 6 176 178 179
168 6 178 181 182
169 6 181 183 184
170 6 183 185 186
171 6 190 191 192
172 6 191 193 194
173 6 193 196 197
174 6 196 199 200
175 6 199 202 203
176 6 202 204 205
177 6 204 206 207
178 6 206 209 210
179 6 209 211 212
180 6 211 213 214
181 6 213 215 216
182 6 217 218 219
183 6 218 222 223
184 6 222 224 225
185 6 224 227 228
186 6 230 231 232
187 6 231 233 234
188 6 233 235 236
189 7 8 9 10
190 7 12 13 14
191 7 15 16 17
192 8 20 21 22
193 8 20 21 23
194 7 28 29 30
195 8 38 39 40
196 8 38 39 41
197 7 48 49 50
198 7 53 54 55
199 8 56 57 58
200 8 56 57 59
201 7 60 61 62
202 8 72 73 74
203 8 72 73 75
204 8 79 80 81
205 8 79 80 82
206 7 84 85 86
207 7 87 88 89
208 8 99 100 101
209 8 99 100 102
210 8 105 106 107
211 8 105 106 108
212 7 116 117 118
213 7 121 122 123
214 9 129 130 131
215 10 129 130 132
216 7 134 135 136
217 8 149 150 151
218 8 149 150 152
219 7 161 162 163
220 7 164 165 166
221 8 167 168 169
222 8 167 168 170
223 7 178 179 180
224 8 185 186 187
225 8 185 186 188
226 7 193 194 195
227 7 196 197 198
228 7 199 200 201
229 7 206 207 208
230 8 218 219 220
231 8 218 219 221
232 7 224 225 226
233 7 227 228 229

Dihedrals

1 1 4 6 8 11
2 1 6 8 11 12
3 1 8 11 12 15
4 1 11 12 15 18
5 1 12 15 18 20
6 1 15 18 20 24
7 1 18 20 24 26
8 1 20 24 26 28
9 1 111 113 114 116
10 1 113 114 116 119
11 1 137 139 141 143
12 1 139 141 143 145
13 1 141 143 145 147
14 1 143 145 147 149
15 1 159 161 164 167
16 1 199 202 204 206
17 1 202 204 206 209
18 1 204 206 209 211
19 1 206 209 211 213
20 1 209 211 213 215
21 1 211 213 215 217
22 1 213 215 217 218
23 1 215 217 218 222
24 1 217 218 222 224
25 1 218 222 224 227
26 1 222 224 227 230
27 1 224 227 230 231
28 1 227 230 231 233

Impropers

1 1 20 22 23 21
2 1 38 40 41 39
3 1 56 58 59 57
4 1 72 74 75 73
5 1 79 81 82 80
6 1 99 101 102 100
7 1 105 107 108 106
8 1 129 131 132 130
9 2 130 131 133 132
10 1 149 151 152 150
11 1 167 169 170 168
12 1 185 187 188 186
13 1 218 220 221 219

