comment

236 atoms
248 bonds
233 angles
28 dihedrals
13 impropers

17 atom types
17 bond types
10 angle types
1 dihedral types
2 improper types

-40.5 40.5 xlo xhi
-40.5 40.5 ylo yhi
-190.0 190.0 zlo zhi

Masses

1 72.0
2 72.0
3 72.0
4 72.0
5 72.0
6 72.0
7 72.0
8 72.0
9 72.0
10 45.0
11 72.0
12 72.0
13 72.0
14 45.0
15 45.0
16 72.0
17 45.0

PairIJ Coeffs

1 1 1.19503 4.699999999999999
1 2 1.3384336 4.699999999999999
1 3 1.3384336 4.699999999999999
1 4 0.956024 4.699999999999999
1 5 0.478012 4.699999999999999
1 6 0.5497137999999999 4.699999999999999
1 7 0.836521 4.699999999999999
1 8 0.478012 4.699999999999999
1 9 1.19503 4.699999999999999
1 10 0.7409186 4.699999999999999
1 11 1.3384336 4.699999999999999
1 12 1.19503 4.699999999999999
1 13 0.7409186 4.699999999999999
1 14 0.6453162 4.699999999999999
1 15 1.19503 4.699999999999999
1 16 1.19503 4.699999999999999
1 17 0.956024 4.699999999999999
2 2 1.3384336 4.699999999999999
2 3 1.3384336 4.699999999999999
2 4 1.19503 4.699999999999999
2 5 0.5497137999999999 4.699999999999999
2 6 0.6453162 4.699999999999999
2 7 0.836521 4.699999999999999
2 8 0.478012 4.699999999999999
2 9 1.19503 4.699999999999999
2 10 0.7409186 4.699999999999999
2 11 1.3384336 4.699999999999999
2 12 1.19503 4.699999999999999
2 13 0.7409186 4.699999999999999
2 14 0.6453162 4.699999999999999
2 15 1.3384336 4.699999999999999
2 16 1.3384336 4.699999999999999
2 17 1.19503 4.699999999999999
3 3 1.19503 4.699999999999999
3 4 1.19503 4.699999999999999
3 5 0.478012 4.699999999999999
3 6 0.5497137999999999 4.699999999999999
3 7 0.836521 4.699999999999999
3 8 0.478012 4.699999999999999
3 9 0.956024 4.699999999999999
3 10 0.7409186 4.699999999999999
3 11 1.3384336 4.699999999999999
3 12 1.19503 4.699999999999999
3 13 0.7409186 4.699999999999999
3 14 0.6453162 4.699999999999999
3 15 1.19503 4.699999999999999
3 16 1.19503 4.699999999999999
3 17 1.19503 4.699999999999999
4 4 0.956024 4.699999999999999
4 5 0.6453162 4.699999999999999
4 6 0.6453162 4.699999999999999
4 7 0.836521 4.699999999999999
4 8 0.6453162 4.699999999999999
4 9 1.075527 4.699999999999999
4 10 0.836521 4.699999999999999
4 11 0.956024 4.699999999999999
4 12 1.075527 4.699999999999999
4 13 0.836521 4.699999999999999
4 14 0.7409186 4.699999999999999
4 15 1.075527 4.699999999999999
4 16 1.075527 4.699999999999999
4 17 0.956024 4.699999999999999
5 5 0.836521 4.699999999999999
5 6 0.836521 4.699999999999999
5 7 0.7409186 4.699999999999999
5 8 0.836521 4.699999999999999
5 9 0.6453162 4.699999999999999
5 10 0.7409186 4.699999999999999
5 11 0.5497137999999999 4.699999999999999
5 12 0.6453162 4.699999999999999
5 13 0.7409186 4.699999999999999
5 14 0.7409186 4.699999999999999
5 15 0.7409186 4.699999999999999
5 16 0.7409186 4.699999999999999
5 17 0.6453162 4.699999999999999
6 6 0.836521 4.699999999999999
6 7 0.836521 4.699999999999999
6 8 0.836521 4.699999999999999
6 9 0.6453162 4.699999999999999
6 10 0.836521 4.699999999999999
6 11 0.6453162 4.699999999999999
6 12 0.6453162 4.699999999999999
6 13 0.836521 4.699999999999999
6 14 0.836521 4.699999999999999
6 15 0.836521 4.699999999999999
6 16 0.836521 4.699999999999999
6 17 0.6453162 4.699999999999999
7 7 0.836521 4.699999999999999
7 8 0.6453162 4.699999999999999
7 9 0.836521 4.699999999999999
7 10 0.836521 4.699999999999999
7 11 0.836521 4.699999999999999
7 12 0.836521 4.699999999999999
7 13 0.836521 4.699999999999999
7 14 0.836521 4.699999999999999
7 15 0.956024 4.699999999999999
7 16 0.956024 4.699999999999999
7 17 0.836521 4.699999999999999
8 8 0.836521 4.699999999999999
8 9 0.6453162 4.699999999999999
8 10 0.7409186 4.699999999999999
8 11 0.478012 4.699999999999999
8 12 0.6453162 4.699999999999999
8 13 0.7409186 4.699999999999999
8 14 0.7409186 4.699999999999999
8 15 0.6453162 4.699999999999999
8 16 0.6453162 4.699999999999999
8 17 0.6453162 4.699999999999999
9 9 0.956024 4.699999999999999
9 10 0.836521 4.699999999999999
9 11 0.956024 4.699999999999999
9 12 1.075527 4.699999999999999
9 13 0.836521 4.699999999999999
9 14 0.7409186 4.699999999999999
9 15 1.075527 4.699999999999999
9 16 1.075527 4.699999999999999
9 17 1.075527 4.699999999999999
10 10 0.62739075 4.3
10 11 0.7409186 4.699999999999999
10 12 0.836521 4.699999999999999
10 13 0.836521 4.699999999999999
10 14 0.62739075 4.3
10 15 0.62739075 4.3
10 16 0.836521 4.699999999999999
10 17 0.62739075 4.3
11 11 1.19503 4.699999999999999
11 12 0.956024 4.699999999999999
11 13 0.7409186 4.699999999999999
11 14 0.6453162 4.699999999999999
11 15 1.075527 4.699999999999999
11 16 1.075527 4.699999999999999
11 17 0.956024 4.699999999999999
12 12 1.075527 4.699999999999999
12 13 0.836521 4.699999999999999
12 14 0.7409186 4.699999999999999
12 15 1.075527 4.699999999999999
12 16 1.075527 4.699999999999999
12 17 1.075527 4.699999999999999
13 13 0.836521 4.699999999999999
13 14 0.836521 4.699999999999999
13 15 0.836521 4.699999999999999
13 16 0.836521 4.699999999999999
13 17 0.836521 4.699999999999999
14 14 0.62739075 4.3
14 15 0.62739075 4.3
14 16 0.836521 4.699999999999999
14 17 0.5556889500000001 4.3
15 15 0.80664525 4.3
15 16 1.075527 4.699999999999999
15 17 0.80664525 4.3
16 16 1.075527 4.699999999999999
16 17 1.075527 4.699999999999999
17 17 0.7170179999999999 4.3

Bond Coeffs

1 1.4937875 3.5
2 8.962725 3.2
3 5.97515 4.0
4 5.97515 3.3000000000000003
5 5.97515 2.8000000000000003
6 8.962725 3.1
7 8.962725 3.0
8 5.97515 3.2
9 8.962725 3.3000000000000003
10 5.97515 3.4000000000000004
11 5.97515 3.0
12 2.987575 4.0
13 11.9503 3.3000000000000003
14 11.9503 3.1
15 11.9503 2.6500000000000004
16 11.9503 2.7
17 11.9503 2.6

Angle Coeffs

1 2.39006 127
2 83.6521 96
3 2.39006 100
4 2.39006 130
5 11.9503 98
6 2.987575 100
7 2.987575 180
8 5.97515 150
9 5.97515 210
10 5.97515 90

Dihedral Coeffs

1 95.6024 1 -120 0

Improper Coeffs

1 5.97515 0
2 23.9006 0

Atoms

1 1 1 1.0000 1.2549999 -0.027 -48.818
2 1 2 0.0000 0.217201 0.180291 -51.1059
3 1 3 -1.0000 -1.53261 -0.839397 -53.351204
4 1 4 0.0000 1.6494501 2.2148302 -54.366997
5 1 5 0.0000 2.77954 0.92407703 -56.6357
6 1 4 0.0000 1.3494099 5.58459 -55.042603
7 1 3 -1.0000 -2.16374 6.2221904 -56.277
8 1 4 0.0000 4.24481 6.33086 -56.8078
9 1 6 0.0000 6.9186 4.58779 -56.965298
10 1 1 1.0000 7.7525997 2.53971 -57.430702
11 1 4 0.0000 3.46712 4.91112 -60.029404
12 1 7 0.0000 1.39294 7.01421 -60.681602
13 1 6 0.0000 -1.8204 6.50231 -61.509598
14 1 1 1.0000 -4.46785 6.40145 -60.5632
15 1 7 0.0000 3.2657301 9.6279 -59.9333
16 1 6 0.0000 2.02749 11.620399 -57.987297
17 1 1 1.0000 -0.13248 10.7099 -56.231697
18 1 7 0.0000 5.7322197 8.96521 -62.124
19 1 8 0.0000 8.24084 7.32064 -60.6221
20 1 9 0.0000 4.3835 9.94424 -64.7849
21 1 10 0.0000 5.44573 9.96964 -67.8406
22 1 10 0.0000 5.2473803 9.31874 -70.3008
23 1 10 0.0000 7.4932404 8.91574 -69.0228
24 1 9 0.0000 3.7427802 12.9125 -64.1342
25 1 5 0.0000 1.2977301 13.604401 -63.7055
26 1 9 0.0000 6.4353504 13.7947 -63.1417
27 1 11 0.0000 5.87874 17.26 -65.0913
28 1 9 0.0000 8.163899 13.222899 -65.8171
29 1 6 0.0000 9.70544 10.518301 -65.2151
30 1 1 1.0000 11.218801 8.61417 -64.9619
31 1 12 0.0000 6.99405 14.907399 -68.7602
32 1 13 0.0000 8.89886 14.3961 -71.0693
33 1 7 0.0000 4.31362 14.439 -69.7084
34 1 12 0.0000 1.64872 12.971701 -68.4735
35 1 11 0.0000 -1.2100301 15.8146 -68.2418
36 1 12 0.0000 -0.0494406 11.974 -71.6827
37 1 13 0.0000 -1.35145 14.9456005 -71.584
38 1 2 0.0000 -0.894908 8.78834 -71.0009
39 1 14 0.0000 1.63444 7.576 -72.4214
40 1 15 0.0000 3.1957002 5.76397 -72.5205
41 1 15 0.0000 4.06356 7.45497 -74.209
42 1 2 0.0000 -4.57909 8.293341 -71.9477
43 1 16 0.0000 -5.1736803 7.84227 -74.0277
44 1 2 0.0000 -5.8024197 7.46194 -68.6235
45 1 5 0.0000 -3.76021 5.98284 -67.6546
46 1 2 0.0000 -8.71862 6.7313805 -66.0267
47 1 3 -1.0000 -5.90739 9.31033 -63.937603
48 1 12 0.0000 -11.3713 3.5648098 -64.6054
49 1 6 0.0000 -12.3575 3.14731 -61.7603
50 1 1 1.0000 -11.6846 1.5699799 -59.5258
51 1 12 0.0000 -13.6605 5.46768 -67.375595
52 1 2 0.0000 -10.914299 7.58486 -67.0044
53 1 2 0.0000 -10.7905 11.3533 -66.2618
54 1 6 0.0000 -10.4844 10.3865 -63.163498
55 1 1 1.0000 -9.63032 7.73813 -61.4945
56 1 2 0.0000 -9.28027 11.862101 -69.7083
57 1 14 0.0000 -10.011701 9.69823 -71.5831
58 1 15 0.0000 -9.68262 6.9965 -72.1335
59 1 15 0.0000 -12.1488 8.19319 -71.915695
60 1 2 0.0000 -6.0024204 13.246099 -71.5364
61 1 6 0.0000 -4.50941 12.494201 -68.9845
62 1 1 1.0000 -3.36254 11.7822 -66.499
63 1 2 0.0000 -3.85548 12.4016 -75.629
64 1 16 0.0000 -3.9180498 14.615601 -76.8584
65 1 2 0.0000 -0.700529 10.7624 -76.2396
66 1 11 0.0000 -0.355492 7.5693603 -77.1756
67 1 6 0.0000 1.8951299 6.17535 -79.1011
68 1 2 0.0000 -1.49524 4.16278 -75.471
69 1 2 0.0000 -4.31697 4.10791 -77.1318
70 1 2 0.0000 -2.2021601 2.6626399 -72.4334
71 1 8 0.0000 -0.307159 3.31493 -70.3132
72 1 12 0.0000 -6.20142 2.2376301 -74.1491
73 1 14 0.0000 -7.27416 3.41341 -71.5529
74 1 15 0.0000 -9.81509 2.54924 -70.0387
75 1 15 0.0000 -7.74539 2.94164 -68.7801
76 1 12 0.0000 -7.54578 -1.55828 -72.7406
77 1 2 0.0000 -6.0699997 -2.41069 -70.3498
78 1 8 0.0000 -4.06156 -0.0816879 -68.8526
79 1 12 0.0000 -6.014 -5.50894 -70.0134
80 1 10 0.0000 -4.36761 -6.33285 -67.6009
81 1 10 0.0000 -3.75455 -5.51214 -64.9652
82 1 10 0.0000 -4.43728 -8.07232 -65.5063
83 1 12 0.0000 -5.81777 -7.92609 -72.090904
84 1 2 0.0000 -5.74089 -6.87136 -75.6816
85 1 7 0.0000 -3.92375 -4.4639797 -74.6471
86 1 1 1.0000 -3.71878 -1.47366 -76.05
87 1 2 0.0000 -3.7074802 -7.0459404 -79.6007
88 1 6 0.0000 -1.01246 -8.89525 -80.436295
89 1 1 1.0000 0.52902097 -11.1415 -80.786804
90 1 12 0.0000 -2.05038 -4.2474203 -80.04739
91 1 16 0.0000 0.270309 -3.9035401 -78.7812
92 1 12 0.0000 -4.68651 -3.50001 -82.5597
93 1 2 0.0000 -6.45659 -1.3417301 -80.1979
94 1 11 0.0000 -8.91411 -2.9812 -77.1855
95 1 11 0.0000 -8.47645 1.33763 -79.5536
96 1 7 0.0000 -10.110101 4.2044897 -77.3658
97 1 6 0.0000 -11.0041 2.81724 -74.6258
98 1 12 0.0000 -8.236879 6.7881603 -77.8001
99 1 2 0.0000 -7.7049203 5.67865 -81.4083
100 1 10 0.0000 -7.25578 8.0307 -82.692406
101 1 10 0.0000 -5.6084595 8.83346 -84.3742
102 1 10 0.0000 -7.35657 10.4562 -83.4961
103 1 2 0.0000 -4.60572 3.55459 -82.3232
104 1 16 0.0000 -5.19865 1.8812101 -84.120705
105 1 2 0.0000 -1.7112801 5.79918 -82.34511
106 1 14 0.0000 -3.03913 8.04543 -81.0907
107 1 14 0.0000 -4.8077 9.4632 -79.3359
108 1 15 0.0000 -3.4619 10.9031 -80.7898
109 1 2 0.0000 -0.937672 4.22098 -85.6355
110 1 16 0.0000 -1.64257 6.08186 -87.261696
111 1 4 0.0000 2.13949 3.0338001 -85.7035
112 1 3 -1.0000 3.0194802 1.27631 -88.0784
113 1 7 0.0000 2.5839999 2.16636 -82.6537
114 1 12 0.0000 0.0116904 0.281596 -82.027504
115 1 2 0.0000 -0.74216497 0.915884 -79.3667
116 1 12 0.0000 0.26383 -1.8227801 -84.2931
117 1 6 0.0000 -1.6326401 -1.04521 -86.474106
118 1 1 1.0000 -1.34961 0.39788002 -88.8577
119 1 9 0.0000 3.25145 -2.97077 -83.6174
120 1 2 0.0000 3.97835 -3.48199 -86.87781
121 1 2 0.0000 5.0972996 -4.98518 -81.5588
122 1 6 0.0000 8.74604 -4.7726 -81.236404
123 1 1 1.0000 10.3261 -5.42615 -78.7235
124 1 2 0.0000 3.9261699 -6.94057 -79.611
125 1 2 0.0000 2.48882 -7.8246303 -77.0412
126 1 8 0.0000 3.8795302 -10.717699 -76.5276
127 1 2 0.0000 -0.221103 -8.14682 -74.913605
128 1 16 0.0000 -1.52037 -9.8421 -75.444496
129 1 2 0.0000 -1.26214 -8.51101 -70.5568
130 1 14 0.0000 -0.616768 -5.15539 -70.4798
131 1 17 0.0000 -0.74393 -2.90333 -71.3524
132 1 10 0.0000 0.664491 -4.56717 -72.9648
133 1 10 0.0000 0.468103 -1.98182 -73.8269
134 1 2 0.0000 0.457613 -9.12095 -67.5661
135 1 6 0.0000 2.09245 -11.3037 -66.1331
136 1 1 1.0000 4.3253603 -11.6989 -64.1222
137 1 4 0.0000 2.56647 -6.49931 -66.1935
138 1 3 -1.0000 5.5835004 -7.4601502 -63.0693
139 1 4 0.0000 5.32342 -7.46 -67.5766
140 1 3 -1.0000 5.69516 -7.50311 -62.9606
141 1 4 0.0000 4.53919 -6.30183 -70.4804
142 1 16 0.0000 3.8077302 -8.24196 -72.404396
143 1 12 0.0000 4.38387 -3.1785898 -69.6465
144 1 8 0.0000 3.2458699 -0.0883169 -70.3196
145 1 9 0.0000 7.58747 -2.8112798 -69.0092
146 1 13 0.0000 9.5807 -5.47656 -66.9162
147 1 9 0.0000 8.80638 -3.3728 -71.9383
148 1 3 -1.0000 11.976 -3.75188 -74.6018
149 1 9 0.0000 7.69189 -0.437004 -73.0692
150 1 14 0.0000 5.35746 1.00789 -74.6272
151 1 14 0.0000 4.27378 2.92278 -76.0679
152 1 15 0.0000 2.70338 1.85064 -74.744804
153 1 12 0.0000 9.46805 1.60138 -71.2167
154 1 8 0.0000 6.70559 3.13518 -69.6248
155 1 12 0.0000 12.4955 0.988034 -72.389694
156 1 3 -1.0000 15.7691 0.369366 -70.8367
157 1 2 0.0000 12.993601 3.2607002 -74.097
158 1 2 0.0000 15.5135 5.1421795 -74.348404
159 1 7 0.0000 10.0091 3.7750502 -75.9866
160 1 6 0.0000 8.27967 5.10588 -74.0317
161 1 12 0.0000 11.3188 3.20826 -78.6457
162 1 6 0.0000 13.4299 5.8159103 -79.1289
163 1 1 1.0000 12.5828 8.24416 -77.9821
164 1 12 0.0000 11.848299 -0.0392307 -78.2628
165 1 6 0.0000 15.194401 0.154755 -77.3814
166 1 1 1.0000 16.0821 -1.4875001 -74.918
167 1 12 0.0000 8.708361 -0.743964 -77.7748
168 1 14 0.0000 6.7514095 -3.3171701 -76.8042
169 1 14 0.0000 4.23555 -3.72125 -75.3858
170 1 15 0.0000 6.30029 -5.54662 -75.4543
171 1 2 0.0000 6.60353 0.468967 -79.851395
172 1 8 0.0000 4.07801 -0.829335 -79.172905
173 1 7 0.0000 7.41444 0.485149 -82.5403
174 1 6 0.0000 7.4198103 -1.1594499 -84.72571
175 1 12 0.0000 8.85019 3.67948 -82.617195
176 1 2 0.0000 6.1482296 5.88204 -81.0838
177 1 16 0.0000 6.77652 6.16823 -78.7611
178 1 2 0.0000 4.65527 6.73707 -83.502
179 1 6 0.0000 6.14555 5.01997 -86.1111
180 1 1 1.0000 6.9734597 3.23351 -87.4173
181 1 2 0.0000 1.9136701 9.30095 -83.0332
182 1 13 0.0000 1.6792799 10.162899 -87.4366
183 1 2 0.0000 2.8945699 11.0964 -80.4294
184 1 8 0.0000 1.76049 13.744101 -80.8545
185 1 2 0.0000 5.13531 11.3876 -77.6459
186 1 10 0.0000 3.74097 13.3488 -75.775696
187 1 10 0.0000 4.11735 15.4009 -74.608
188 1 10 0.0000 1.7238 15.342899 -75.631
189 1 11 0.0000 8.35092 10.5506 -75.7289
190 1 2 0.0000 10.2636 9.74558 -73.3204
191 1 2 0.0000 11.8626995 8.34291 -70.8711
192 1 8 0.0000 12.978801 10.9558 -69.040596
193 1 2 0.0000 12.1516 4.82084 -68.358
194 1 6 0.0000 14.7894 4.89788 -69.2319
195 1 1 1.0000 17.037199 3.94168 -68.4582
196 1 2 0.0000 15.5245 0.948242 -65.7342
197 1 6 0.0000 17.785 2.33979 -63.8587
198 1 1 1.0000 18.049 4.25989 -61.5447
199 1 4 0.0000 13.9528 -1.4238399 -63.6442
200 1 6 0.0000 11.785001 -3.7897701 -62.3059
201 1 1 1.0000 9.099461 -4.50953 -61.532898
202 1 4 0.0000 12.6606 0.867069 -61.6539
203 1 16 0.0000 11.704901 -0.44180098 -59.376797
204 1 4 0.0000 12.0917 3.21116 -63.9284
205 1 3 -1.0000 14.9548 5.9630604 -64.503105
206 1 4 0.0000 10.643801 0.97353697 -65.8593
207 1 7 0.0000 12.177401 -1.49432 -68.0326
208 1 1 1.0000 13.3317995 -3.78398 -70.202194
209 1 7 0.0000 8.9157 -0.31378 -63.4907
210 1 3 -1.0000 6.7035103 -1.23415 -59.558903
211 1 7 0.0000 7.3766203 2.00419 -62.5585
212 1 3 -1.0000 6.5146203 -0.90007496 -59.925
213 1 7 0.0000 5.6899204 2.44116 -65.1999
214 1 8 0.0000 7.1850004 5.67676 -65.5161
215 1 7 0.0000 4.13107 -0.327942 -65.0204
216 1 8 0.0000 5.5420103 -3.1517801 -64.8416
217 1 13 0.0000 2.56832 0.53954196 -62.3942
218 1 7 0.0000 0.845919 2.7368102 -63.8459
219 1 14 0.0000 1.17335 5.44886 -65.5067
220 1 14 0.0000 2.8991299 6.28471 -67.688896
221 1 15 0.0000 0.62351 7.57031 -66.1807
222 1 7 0.0000 -0.892321 0.42373502 -65.7251
223 1 8 0.0000 -0.0848436 -2.2179499 -67.0221
224 1 7 0.0000 -2.13376 -1.11291 -63.095398
225 1 6 0.0000 0.467287 -3.67118 -62.0179
226 1 1 1.0000 3.2033 -4.0641003 -61.003098
227 1 9 0.0000 -3.1057 1.59768 -61.6547
228 1 6 0.0000 -2.6945999 1.6140699 -58.5124
229 1 1 1.0000 -4.27666 1.86272 -55.828598
230 1 7 0.0000 -4.79908 2.75884 -64.338005
231 1 9 0.0000 -6.67114 0.099638596 -64.5603
232 1 16 0.0000 -8.60703 -1.1661301 -66.1657
233 1 9 0.0000 -7.46482 0.25250602 -61.5624
234 1 2 0.0000 -6.10934 -1.9226099 -59.559002
235 1 3 -1.0000 -7.7154703 3.4642699 -61.0145
236 1 3 -1.0000 -8.55671 4.58449 -57.924

Bonds

1 1 1 2
2 1 31 33
3 1 33 34
4 1 34 36
5 1 36 38
6 1 38 42
7 1 42 44
8 1 44 46
9 1 46 48
10 1 48 51
11 1 51 52
12 1 52 53
13 1 53 56
14 1 56 60
15 1 60 63
16 1 63 65
17 1 65 66
18 1 66 68
19 1 68 70
20 1 70 72
21 1 72 76
22 1 76 77
23 1 77 79
24 1 79 83
25 1 83 84
26 1 84 87
27 1 87 90
28 1 90 92
29 1 92 93
30 1 93 95
31 1 95 96
32 1 96 98
33 1 98 99
34 1 99 103
35 1 103 105
36 1 105 109
37 1 121 124
38 1 124 125
39 1 125 127
40 1 127 129
41 1 129 134
42 1 153 155
43 1 155 157
44 1 171 173
45 1 173 175
46 1 175 176
47 1 176 178
48 1 178 181
49 1 181 183
50 1 183 185
51 1 185 189
52 1 189 190
53 1 190 191
54 1 191 193
55 1 193 196
56 2 2 3
57 3 6 7
58 4 8 9
59 5 9 10
60 4 12 13
61 5 13 14
62 4 15 16
63 5 16 17
64 6 20 21
65 3 26 27
66 4 28 29
67 5 29 30
68 6 31 32
69 3 34 35
70 6 36 37
71 2 38 39
72 3 46 47
73 4 48 49
74 5 49 50
75 4 53 54
76 5 54 55
77 2 56 57
78 4 60 61
79 5 61 62
80 7 66 67
81 8 68 69
82 9 70 71
83 2 72 73
84 9 77 78
85 6 79 80
86 4 84 85
87 10 85 86
88 4 87 88
89 5 88 89
90 3 93 94
91 7 96 97
92 6 99 100
93 8 105 106
94 2 111 112
95 8 114 115
96 4 116 117
97 5 117 118
98 8 119 120
99 4 121 122
100 5 122 123
101 11 129 130
102 4 134 135
103 5 135 136
104 3 137 138
105 3 139 140
106 9 143 144
107 12 145 146
108 3 147 148
109 8 149 150
110 9 153 154
111 3 155 156
112 8 157 158
113 7 159 160
114 4 161 162
115 5 162 163
116 4 164 165
117 5 165 166
118 8 167 168
119 7 173 174
120 4 178 179
121 5 179 180
122 12 181 182
123 6 185 186
124 4 193 194
125 5 194 195
126 4 196 197
127 5 197 198
128 4 199 200
129 5 200 201
130 3 204 205
131 4 206 207
132 10 207 208
133 3 209 210
134 2 211 212
135 9 213 214
136 8 218 219
137 9 222 223
138 4 224 225
139 5 225 226
140 4 227 228
141 5 228 229
142 8 233 234
143 3 235 236
144 13 2 4
145 14 4 6
146 14 6 8
147 14 8 11
148 14 11 12
149 14 12 15
150 14 15 18
151 14 18 20
152 14 20 24
153 14 24 26
154 14 26 28
155 13 28 31
156 13 109 111
157 14 111 113
158 14 113 114
159 14 114 116
160 14 116 119
161 13 119 121
162 13 134 137
163 14 137 139
164 14 139 141
165 14 141 143
166 14 143 145
167 14 145 147
168 14 147 149
169 13 149 153
170 13 157 159
171 14 159 161
172 14 161 164
173 14 164 167
174 13 167 171
175 13 196 199
176 14 199 202
177 14 202 204
178 14 204 206
179 14 206 209
180 14 209 211
181 14 211 213
182 14 213 215
183 14 215 217
184 14 217 218
185 14 218 222
186 14 222 224
187 14 224 227
188 14 227 230
189 14 230 231
190 14 231 233
191 13 233 235
192 15 4 5
193 14 18 19
194 16 21 22
195 16 21 23
196 16 22 23
197 15 24 25
198 16 39 40
199 16 39 41
200 16 40 41
201 17 42 43
202 15 44 45
203 16 57 58
204 16 57 59
205 16 58 59
206 17 63 64
207 16 73 74
208 16 73 75
209 16 74 75
210 16 80 81
211 16 80 82
212 16 81 82
213 17 90 91
214 16 100 101
215 16 100 102
216 16 101 102
217 17 103 104
218 16 106 107
219 16 106 108
220 16 107 108
221 17 109 110
222 14 125 126
223 17 127 128
224 16 130 131
225 16 130 132
226 16 131 132
227 16 131 133
228 16 132 133
229 17 141 142
230 16 150 151
231 16 150 152
232 16 151 152
233 16 168 169
234 16 168 170
235 16 169 170
236 14 171 172
237 17 176 177
238 14 183 184
239 16 186 187
240 16 186 188
241 16 187 188
242 14 191 192
243 17 202 203
244 14 215 216
245 16 219 220
246 16 219 221
247 16 220 221
248 17 231 232

Angles

1 1 1 2 4
2 1 2 4 6
3 2 4 6 8
4 2 6 8 11
5 2 8 11 12
6 2 11 12 15
7 2 12 15 18
8 2 15 18 20
9 2 18 20 24
10 2 20 24 26
11 2 24 26 28
12 3 26 28 31
13 3 28 31 33
14 3 31 33 34
15 3 33 34 36
16 3 34 36 38
17 3 36 38 42
18 1 38 42 44
19 1 42 44 46
20 3 44 46 48
21 3 46 48 51
22 3 48 51 52
23 3 51 52 53
24 1 52 53 56
25 1 53 56 60
26 1 56 60 63
27 1 60 63 65
28 4 63 65 66
29 1 65 66 68
30 1 66 68 70
31 3 68 70 72
32 3 70 72 76
33 3 72 76 77
34 3 76 77 79
35 3 77 79 83
36 3 79 83 84
37 3 83 84 87
38 3 84 87 90
39 3 87 90 92
40 3 90 92 93
41 3 92 93 95
42 1 93 95 96
43 3 95 96 98
44 3 96 98 99
45 3 98 99 103
46 1 99 103 105
47 1 103 105 109
48 1 105 109 111
49 1 109 111 113
50 2 111 113 114
51 2 113 114 116
52 2 114 116 119
53 1 116 119 121
54 1 119 121 124
55 1 121 124 125
56 1 124 125 127
57 1 125 127 129
58 1 127 129 134
59 1 129 134 137
60 4 134 137 139
61 2 137 139 141
62 2 139 141 143
63 2 141 143 145
64 2 143 145 147
65 2 145 147 149
66 3 147 149 153
67 3 149 153 155
68 3 153 155 157
69 3 155 157 159
70 5 157 159 161
71 5 159 161 164
72 2 161 164 167
73 4 164 167 171
74 4 167 171 173
75 3 171 173 175
76 3 173 175 176
77 3 175 176 178
78 1 176 178 181
79 1 178 181 183
80 1 181 183 185
81 1 183 185 189
82 1 185 189 190
83 1 189 190 191
84 1 190 191 193
85 1 191 193 196
86 1 193 196 199
87 4 196 199 202
88 2 199 202 204
89 2 202 204 206
90 2 204 206 209
91 2 206 209 211
92 2 209 211 213
93 2 211 213 215
94 2 213 215 217
95 2 215 217 218
96 2 217 218 222
97 2 218 222 224
98 2 222 224 227
99 2 224 227 230
100 2 227 230 231
101 2 230 231 233
102 1 231 233 235
103 6 1 2 3
104 6 2 4 5
105 6 4 6 7
106 6 6 8 9
107 6 11 12 13
108 6 12 15 16
109 6 15 18 19
110 6 18 20 21
111 6 20 24 25
112 6 24 26 27
113 6 26 28 29
114 6 28 31 32
115 6 33 34 35
116 6 34 36 37
117 6 36 38 39
118 6 38 42 43
119 6 42 44 45
120 6 44 46 47
121 6 46 48 49
122 6 52 53 54
123 6 53 56 57
124 6 56 60 61
125 6 60 63 64
126 6 65 66 67
127 6 66 68 69
128 6 68 70 71
129 6 70 72 73
130 6 76 77 78
131 6 77 79 80
132 6 83 84 85
133 6 84 87 88
134 6 87 90 91
135 6 92 93 94
136 6 95 96 97
137 6 98 99 100
138 6 99 103 104
139 6 103 105 106
140 6 105 109 110
141 6 109 111 112
142 6 113 114 115
143 6 114 116 117
144 6 116 119 120
145 6 119 121 122
146 6 124 125 126
147 6 125 127 128
148 6 127 129 130
149 6 129 134 135
150 6 134 137 138
151 6 137 139 140
152 6 139 141 142
153 6 141 143 144
154 6 143 145 146
155 6 145 147 148
156 6 147 149 150
157 6 149 153 154
158 6 153 155 156
159 6 155 157 158
160 6 157 159 160
161 6 159 161 162
162 6 161 164 165
163 6 164 167 168
164 6 167 171 172
165 6 171 173 174
166 6 175 176 177
167 6 176 178 179
168 6 178 181 182
169 6 181 183 184
170 6 183 185 186
171 6 190 191 192
172 6 191 193 194
173 6 193 196 197
174 6 196 199 200
175 6 199 202 203
176 6 202 204 205
177 6 204 206 207
178 6 206 209 210
179 6 209 211 212
180 6 211 213 214
181 6 213 215 216
182 6 217 218 219
183 6 218 222 223
184 6 222 224 225
185 6 224 227 228
186 6 230 231 232
187 6 231 233 234
188 6 233 235 236
189 7 8 9 10
190 7 12 13 14
191 7 15 16 17
192 8 20 21 22
193 8 20 21 23
194 7 28 29 30
195 8 38 39 40
196 8 38 39 41
197 7 48 49 50
198 7 53 54 55
199 8 56 57 58
200 8 56 57 59
201 7 60 61 62
202 8 72 73 74
203 8 72 73 75
204 8 79 80 81
205 8 79 80 82
206 7 84 85 86
207 7 87 88 89
208 8 99 100 101
209 8 99 100 102
210 8 105 106 107
211 8 105 106 108
212 7 116 117 118
213 7 121 122 123
214 9 129 130 131
215 10 129 130 132
216 7 134 135 136
217 8 149 150 151
218 8 149 150 152
219 7 161 162 163
220 7 164 165 166
221 8 167 168 169
222 8 167 168 170
223 7 178 179 180
224 8 185 186 187
225 8 185 186 188
226 7 193 194 195
227 7 196 197 198
228 7 199 200 201
229 7 206 207 208
230 8 218 219 220
231 8 218 219 221
232 7 224 225 226
233 7 227 228 229

Dihedrals

1 1 4 6 8 11
2 1 6 8 11 12
3 1 8 11 12 15
4 1 11 12 15 18
5 1 12 15 18 20
6 1 15 18 20 24
7 1 18 20 24 26
8 1 20 24 26 28
9 1 111 113 114 116
10 1 113 114 116 119
11 1 137 139 141 143
12 1 139 141 143 145
13 1 141 143 145 147
14 1 143 145 147 149
15 1 159 161 164 167
16 1 199 202 204 206
17 1 202 204 206 209
18 1 204 206 209 211
19 1 206 209 211 213
20 1 209 211 213 215
21 1 211 213 215 217
22 1 213 215 217 218
23 1 215 217 218 222
24 1 217 218 222 224
25 1 218 222 224 227
26 1 222 224 227 230
27 1 224 227 230 231
28 1 227 230 231 233

Impropers

1 1 20 22 23 21
2 1 38 40 41 39
3 1 56 58 59 57
4 1 72 74 75 73
5 1 79 81 82 80
6 1 99 101 102 100
7 1 105 107 108 106
8 1 129 131 132 130
9 2 130 131 133 132
10 1 149 151 152 150
11 1 167 169 170 168
12 1 185 187 188 186
13 1 218 220 221 219

