comment

236 atoms
248 bonds
233 angles
28 dihedrals
13 impropers

17 atom types
17 bond types
10 angle types
1 dihedral types
2 improper types

-40.5 40.5 xlo xhi
-40.5 40.5 ylo yhi
-190.0 190.0 zlo zhi

Masses

1 72.0
2 72.0
3 72.0
4 72.0
5 72.0
6 72.0
7 72.0
8 72.0
9 72.0
10 45.0
11 72.0
12 72.0
13 72.0
14 45.0
15 45.0
16 72.0
17 45.0

PairIJ Coeffs

1 1 1.19503 4.699999999999999
1 2 1.3384336 4.699999999999999
1 3 1.3384336 4.699999999999999
1 4 0.956024 4.699999999999999
1 5 0.478012 4.699999999999999
1 6 0.5497137999999999 4.699999999999999
1 7 0.836521 4.699999999999999
1 8 0.478012 4.699999999999999
1 9 1.19503 4.699999999999999
1 10 0.7409186 4.699999999999999
1 11 1.3384336 4.699999999999999
1 12 1.19503 4.699999999999999
1 13 0.7409186 4.699999999999999
1 14 0.6453162 4.699999999999999
1 15 1.19503 4.699999999999999
1 16 1.19503 4.699999999999999
1 17 0.956024 4.699999999999999
2 2 1.3384336 4.699999999999999
2 3 1.3384336 4.699999999999999
2 4 1.19503 4.699999999999999
2 5 0.5497137999999999 4.699999999999999
2 6 0.6453162 4.699999999999999
2 7 0.836521 4.699999999999999
2 8 0.478012 4.699999999999999
2 9 1.19503 4.699999999999999
2 10 0.7409186 4.699999999999999
2 11 1.3384336 4.699999999999999
2 12 1.19503 4.699999999999999
2 13 0.7409186 4.699999999999999
2 14 0.6453162 4.699999999999999
2 15 1.3384336 4.699999999999999
2 16 1.3384336 4.699999999999999
2 17 1.19503 4.699999999999999
3 3 1.19503 4.699999999999999
3 4 1.19503 4.699999999999999
3 5 0.478012 4.699999999999999
3 6 0.5497137999999999 4.699999999999999
3 7 0.836521 4.699999999999999
3 8 0.478012 4.699999999999999
3 9 0.956024 4.699999999999999
3 10 0.7409186 4.699999999999999
3 11 1.3384336 4.699999999999999
3 12 1.19503 4.699999999999999
3 13 0.7409186 4.699999999999999
3 14 0.6453162 4.699999999999999
3 15 1.19503 4.699999999999999
3 16 1.19503 4.699999999999999
3 17 1.19503 4.699999999999999
4 4 0.956024 4.699999999999999
4 5 0.6453162 4.699999999999999
4 6 0.6453162 4.699999999999999
4 7 0.836521 4.699999999999999
4 8 0.6453162 4.699999999999999
4 9 1.075527 4.699999999999999
4 10 0.836521 4.699999999999999
4 11 0.956024 4.699999999999999
4 12 1.075527 4.699999999999999
4 13 0.836521 4.699999999999999
4 14 0.7409186 4.699999999999999
4 15 1.075527 4.699999999999999
4 16 1.075527 4.699999999999999
4 17 0.956024 4.699999999999999
5 5 0.836521 4.699999999999999
5 6 0.836521 4.699999999999999
5 7 0.7409186 4.699999999999999
5 8 0.836521 4.699999999999999
5 9 0.6453162 4.699999999999999
5 10 0.7409186 4.699999999999999
5 11 0.5497137999999999 4.699999999999999
5 12 0.6453162 4.699999999999999
5 13 0.7409186 4.699999999999999
5 14 0.7409186 4.699999999999999
5 15 0.7409186 4.699999999999999
5 16 0.7409186 4.699999999999999
5 17 0.6453162 4.699999999999999
6 6 0.836521 4.699999999999999
6 7 0.836521 4.699999999999999
6 8 0.836521 4.699999999999999
6 9 0.6453162 4.699999999999999
6 10 0.836521 4.699999999999999
6 11 0.6453162 4.699999999999999
6 12 0.6453162 4.699999999999999
6 13 0.836521 4.699999999999999
6 14 0.836521 4.699999999999999
6 15 0.836521 4.699999999999999
6 16 0.836521 4.699999999999999
6 17 0.6453162 4.699999999999999
7 7 0.836521 4.699999999999999
7 8 0.6453162 4.699999999999999
7 9 0.836521 4.699999999999999
7 10 0.836521 4.699999999999999
7 11 0.836521 4.699999999999999
7 12 0.836521 4.699999999999999
7 13 0.836521 4.699999999999999
7 14 0.836521 4.699999999999999
7 15 0.956024 4.699999999999999
7 16 0.956024 4.699999999999999
7 17 0.836521 4.699999999999999
8 8 0.836521 4.699999999999999
8 9 0.6453162 4.699999999999999
8 10 0.7409186 4.699999999999999
8 11 0.478012 4.699999999999999
8 12 0.6453162 4.699999999999999
8 13 0.7409186 4.699999999999999
8 14 0.7409186 4.699999999999999
8 15 0.6453162 4.699999999999999
8 16 0.6453162 4.699999999999999
8 17 0.6453162 4.699999999999999
9 9 0.956024 4.699999999999999
9 10 0.836521 4.699999999999999
9 11 0.956024 4.699999999999999
9 12 1.075527 4.699999999999999
9 13 0.836521 4.699999999999999
9 14 0.7409186 4.699999999999999
9 15 1.075527 4.699999999999999
9 16 1.075527 4.699999999999999
9 17 1.075527 4.699999999999999
10 10 0.62739075 4.3
10 11 0.7409186 4.699999999999999
10 12 0.836521 4.699999999999999
10 13 0.836521 4.699999999999999
10 14 0.62739075 4.3
10 15 0.62739075 4.3
10 16 0.836521 4.699999999999999
10 17 0.62739075 4.3
11 11 1.19503 4.699999999999999
11 12 0.956024 4.699999999999999
11 13 0.7409186 4.699999999999999
11 14 0.6453162 4.699999999999999
11 15 1.075527 4.699999999999999
11 16 1.075527 4.699999999999999
11 17 0.956024 4.699999999999999
12 12 1.075527 4.699999999999999
12 13 0.836521 4.699999999999999
12 14 0.7409186 4.699999999999999
12 15 1.075527 4.699999999999999
12 16 1.075527 4.699999999999999
12 17 1.075527 4.699999999999999
13 13 0.836521 4.699999999999999
13 14 0.836521 4.699999999999999
13 15 0.836521 4.699999999999999
13 16 0.836521 4.699999999999999
13 17 0.836521 4.699999999999999
14 14 0.62739075 4.3
14 15 0.62739075 4.3
14 16 0.836521 4.699999999999999
14 17 0.5556889500000001 4.3
15 15 0.80664525 4.3
15 16 1.075527 4.699999999999999
15 17 0.80664525 4.3
16 16 1.075527 4.699999999999999
16 17 1.075527 4.699999999999999
17 17 0.7170179999999999 4.3

Bond Coeffs

1 1.4937875 3.5
2 8.962725 3.2
3 5.97515 4.0
4 5.97515 3.3000000000000003
5 5.97515 2.8000000000000003
6 8.962725 3.1
7 8.962725 3.0
8 5.97515 3.2
9 8.962725 3.3000000000000003
10 5.97515 3.4000000000000004
11 5.97515 3.0
12 2.987575 4.0
13 11.9503 3.3000000000000003
14 11.9503 3.1
15 11.9503 2.6500000000000004
16 11.9503 2.7
17 11.9503 2.6

Angle Coeffs

1 2.39006 127
2 83.6521 96
3 2.39006 100
4 2.39006 130
5 11.9503 98
6 2.987575 100
7 2.987575 180
8 5.97515 150
9 5.97515 210
10 5.97515 90

Dihedral Coeffs

1 95.6024 1 -120 0

Improper Coeffs

1 5.97515 0
2 23.9006 0

Atoms

1 1 1 1.0000 1.2549999 -0.027 -48.818
2 1 2 0.0000 0.0365919 0.166308 -51.0936
3 1 3 -1.0000 -1.48634 -0.34747398 -53.256104
4 1 4 0.0000 2.07267 2.22126 -54.394398
5 1 5 0.0000 2.86325 0.251513 -56.068604
6 1 4 0.0000 1.56529 5.2897205 -54.692303
7 1 3 -1.0000 -1.7307601 6.0829997 -56.299202
8 1 4 0.0000 4.30129 6.0634604 -56.2545
9 1 6 0.0000 7.24215 4.38493 -55.991203
10 1 1 1.0000 7.9531 2.04385 -56.723198
11 1 4 0.0000 3.72422 4.85458 -59.5956
12 1 7 0.0000 1.44948 7.0170097 -60.3727
13 1 6 0.0000 -1.9433 6.78832 -61.040802
14 1 1 1.0000 -4.1935797 6.1248302 -60.2997
15 1 7 0.0000 3.3924298 9.61909 -59.6908
16 1 6 0.0000 2.21902 11.4251995 -57.0184
17 1 1 1.0000 0.506725 10.0871 -55.451004
18 1 7 0.0000 5.88435 9.043819 -61.836
19 1 8 0.0000 8.16329 7.4078603 -60.6802
20 1 9 0.0000 4.37767 9.73329 -64.5001
21 1 10 0.0000 5.16574 9.38162 -67.6471
22 1 10 0.0000 5.48629 10.1119 -70.5889
23 1 10 0.0000 6.8256803 8.9340105 -69.2777
24 1 9 0.0000 3.5016 12.9135 -63.6833
25 1 5 0.0000 1.1554 14.4279 -64.081604
26 1 9 0.0000 6.3583703 13.8957 -63.0718
27 1 11 0.0000 5.53412 17.4844 -64.9572
28 1 9 0.0000 7.80649 13.322801 -66.043
29 1 6 0.0000 9.71978 10.6036 -65.5361
30 1 1 1.0000 11.0175 8.37341 -64.8075
31 1 12 0.0000 6.76017 14.3428 -68.9999
32 1 13 0.0000 9.08444 14.1373005 -70.7806
33 1 7 0.0000 3.93995 14.529901 -69.2026
34 1 12 0.0000 1.19759 12.4314995 -68.4598
35 1 11 0.0000 -1.3943701 15.995999 -68.8035
36 1 12 0.0000 -0.28866 11.8914995 -71.4654
37 1 13 0.0000 -0.86500597 15.462 -71.7616
38 1 2 0.0000 -0.741712 8.5182295 -71.5847
39 1 14 0.0000 2.16643 7.5973997 -72.4125
40 1 15 0.0000 3.68062 5.69431 -72.9107
41 1 15 0.0000 4.06327 7.7710004 -74.1315
42 1 2 0.0000 -4.09536 8.040771 -71.5285
43 1 16 0.0000 -5.4643 8.36405 -73.8201
44 1 2 0.0000 -4.6276703 7.1659303 -67.8679
45 1 5 0.0000 -3.28934 4.95001 -67.3725
46 1 2 0.0000 -7.1888695 6.6755495 -65.4325
47 1 3 -1.0000 -5.67887 9.67797 -63.0019
48 1 12 0.0000 -11.413799 3.82525 -64.4921
49 1 6 0.0000 -11.9986 2.5596201 -61.5207
50 1 1 1.0000 -11.648001 1.72732 -58.7713
51 1 12 0.0000 -12.4444 5.4855604 -67.485
52 1 2 0.0000 -9.36749 8.0098095 -67.4838
53 1 2 0.0000 -10.0252 10.8638 -65.932205
54 1 6 0.0000 -10.520801 9.22829 -62.918
55 1 1 1.0000 -9.33246 7.06289 -61.2664
56 1 2 0.0000 -9.14433 12.7907 -69.9508
57 1 14 0.0000 -9.93877 10.124701 -71.5315
58 1 15 0.0000 -9.83045 7.9431 -72.2957
59 1 15 0.0000 -12.2291 8.60897 -71.7865
60 1 2 0.0000 -5.3272495 13.3996 -71.5862
61 1 6 0.0000 -4.3508 12.1963005 -68.728195
62 1 1 1.0000 -3.5707 12.5401 -65.9837
63 1 2 0.0000 -3.43264 13.176499 -75.1164
64 1 16 0.0000 -3.01453 14.9627 -76.6785
65 1 2 0.0000 -0.593973 10.4564 -76.1734
66 1 11 0.0000 0.165373 7.2824597 -77.0754
67 1 6 0.0000 1.51493 6.0561504 -79.361
68 1 2 0.0000 -1.69011 4.86281 -75.2134
69 1 2 0.0000 -4.5805697 4.31143 -76.9738
70 1 2 0.0000 -2.4019198 2.19404 -72.6477
71 1 8 0.0000 -0.322935 2.62555 -70.1311
72 1 12 0.0000 -5.5204396 2.38486 -74.7381
73 1 14 0.0000 -7.36884 3.10366 -71.9292
74 1 15 0.0000 -9.40993 3.5451002 -71.034004
75 1 15 0.0000 -7.22943 3.0934901 -69.415695
76 1 12 0.0000 -7.68306 -1.22799 -73.624405
77 1 2 0.0000 -6.62166 -2.11729 -70.681
78 1 8 0.0000 -4.02177 -1.21703 -68.642105
79 1 12 0.0000 -6.01178 -5.49387 -70.0071
80 1 10 0.0000 -5.32699 -5.8410797 -67.0017
81 1 10 0.0000 -3.1874702 -5.6958003 -65.2055
82 1 10 0.0000 -5.3089705 -6.87375 -64.5612
83 1 12 0.0000 -5.82761 -8.10727 -72.7501
84 1 2 0.0000 -5.52952 -6.5318604 -75.6378
85 1 7 0.0000 -3.98357 -4.49929 -75.2694
86 1 1 1.0000 -3.10241 -1.70808 -75.6268
87 1 2 0.0000 -4.0655603 -7.97929 -79.474304
88 1 6 0.0000 -0.672628 -9.04702 -80.0906
89 1 1 1.0000 0.284782 -8.20511 -82.813194
90 1 12 0.0000 -2.3784401 -4.3193297 -79.9434
91 1 16 0.0000 0.102463 -3.6764402 -78.7452
92 1 12 0.0000 -5.41369 -3.4162598 -81.5424
93 1 2 0.0000 -6.2153397 -0.71015203 -79.0679
94 1 11 0.0000 -8.90057 -3.5975502 -77.8066
95 1 11 0.0000 -8.16858 0.875653 -79.4912
96 1 7 0.0000 -10.099699 3.74479 -77.0562
97 1 6 0.0000 -12.127 2.27794 -75.1219
98 1 12 0.0000 -8.3818 6.83213 -77.1448
99 1 2 0.0000 -7.5229197 5.41075 -80.9381
100 1 10 0.0000 -7.04917 7.8143 -83.1113
101 1 10 0.0000 -6.2139897 8.3617 -85.755394
102 1 10 0.0000 -6.78231 10.3931 -84.11391
103 1 2 0.0000 -4.67514 3.39956 -82.0897
104 1 16 0.0000 -5.5857997 1.7906 -83.7881
105 1 2 0.0000 -1.98896 5.66212 -83.09241
106 1 14 0.0000 -2.88836 8.22837 -81.165504
107 1 14 0.0000 -4.61158 9.1952305 -79.622505
108 1 15 0.0000 -3.31239 10.8743 -81.31641
109 1 2 0.0000 -1.19238 5.21482 -85.7563
110 1 16 0.0000 -1.89271 5.9003105 -88.2631
111 1 4 0.0000 1.29529 3.1417 -85.629105
112 1 3 -1.0000 2.19545 1.48243 -88.0721
113 1 7 0.0000 2.25553 2.26954 -82.985
114 1 12 0.0000 -0.287395 0.556465 -81.885796
115 1 2 0.0000 -0.548973 1.51761 -78.7879
116 1 12 0.0000 -0.21805501 -1.7995601 -84.18761
117 1 6 0.0000 -2.7518902 -1.05646 -86.2259
118 1 1 1.0000 -2.2319 0.964854 -88.2161
119 1 9 0.0000 2.8346 -3.1897302 -83.4002
120 1 2 0.0000 4.16044 -3.1213 -86.658295
121 1 2 0.0000 4.86626 -4.80449 -81.6386
122 1 6 0.0000 8.2535305 -4.65411 -81.1154
123 1 1 1.0000 10.3776 -5.47195 -79.1701
124 1 2 0.0000 4.4861403 -7.9552503 -79.832
125 1 2 0.0000 2.7467 -7.4592104 -77.2191
126 1 8 0.0000 2.7648602 -10.4774 -76.4507
127 1 2 0.0000 -0.37934798 -7.73844 -74.4852
128 1 16 0.0000 -1.4642601 -9.95208 -75.2427
129 1 2 0.0000 -0.799911 -8.261291 -70.1261
130 1 14 0.0000 -0.91832304 -5.04221 -70.3348
131 1 17 0.0000 -0.135723 -2.60623 -71.6166
132 1 10 0.0000 0.532835 -4.76565 -72.8334
133 1 10 0.0000 1.24813 -2.3917701 -73.7083
134 1 2 0.0000 0.115384005 -8.901299 -66.8732
135 1 6 0.0000 2.55028 -11.0111 -67.5099
136 1 1 1.0000 4.55029 -11.859501 -65.2109
137 1 4 0.0000 2.1632102 -6.4675703 -66.5887
138 1 3 -1.0000 5.54307 -7.7965803 -63.279602
139 1 4 0.0000 5.2023296 -7.66399 -67.8114
140 1 3 -1.0000 5.9568205 -7.9509 -63.5334
141 1 4 0.0000 4.75674 -6.3242297 -70.869
142 1 16 0.0000 4.25804 -8.13465 -72.6538
143 1 12 0.0000 4.6349 -3.43673 -69.6222
144 1 8 0.0000 4.02782 -0.127633 -69.564804
145 1 9 0.0000 7.8215895 -3.41722 -68.7511
146 1 13 0.0000 9.60826 -6.37265 -66.511795
147 1 9 0.0000 8.84236 -3.45135 -71.907104
148 1 3 -1.0000 11.8042 -3.938 -74.7348
149 1 9 0.0000 7.5724697 -0.542501 -72.6398
150 1 14 0.0000 5.4166503 0.93768406 -74.1886
151 1 14 0.0000 4.10172 2.65863 -76.1066
152 1 15 0.0000 2.5430598 1.54386 -74.0172
153 1 12 0.0000 9.244841 1.26136 -70.9439
154 1 8 0.0000 6.97005 3.36797 -69.703
155 1 12 0.0000 12.1514 0.981272 -72.0498
156 1 3 -1.0000 15.8383 0.0359787 -70.9453
157 1 2 0.0000 13.0539 2.8016999 -74.1367
158 1 2 0.0000 15.8881 4.41768 -73.8458
159 1 7 0.0000 10.306701 3.50103 -75.6398
160 1 6 0.0000 8.513929 5.1441298 -74.3307
161 1 12 0.0000 11.1228 3.1908102 -78.5101
162 1 6 0.0000 13.1317 6.11906 -78.3369
163 1 1 1.0000 11.5826 8.674709 -78.1692
164 1 12 0.0000 11.4589 -0.0120267 -78.3747
165 1 6 0.0000 14.274401 -0.638548 -77.582596
166 1 1 1.0000 15.6811 -1.26425 -75.4291
167 1 12 0.0000 8.366159 -0.83304894 -77.6258
168 1 14 0.0000 6.8291 -3.1508698 -76.585
169 1 14 0.0000 5.12535 -4.03514 -75.2049
170 1 15 0.0000 7.02701 -5.46406 -75.8364
171 1 2 0.0000 6.22814 0.47516498 -79.8469
172 1 8 0.0000 3.67954 -0.915497 -79.1892
173 1 7 0.0000 6.5778704 0.20521599 -83.483894
174 1 6 0.0000 8.873011 -1.06489 -84.7956
175 1 12 0.0000 8.88425 3.13442 -82.93939
176 1 2 0.0000 6.2787495 4.2722898 -80.01759
177 1 16 0.0000 6.61932 6.32642 -78.6617
178 1 2 0.0000 4.6162 6.3825397 -82.974396
179 1 6 0.0000 6.5199704 4.93802 -85.5519
180 1 1 1.0000 6.34907 3.06834 -87.56641
181 1 2 0.0000 1.82517 9.212629 -83.24799
182 1 13 0.0000 1.98341 8.68284 -86.8441
183 1 2 0.0000 2.00493 10.9174 -80.966995
184 1 8 0.0000 1.4599501 14.1423 -80.9451
185 1 2 0.0000 4.30855 10.626801 -78.0951
186 1 10 0.0000 3.1901 13.2688 -76.8617
187 1 10 0.0000 4.15625 15.5169 -75.244896
188 1 10 0.0000 1.70958 14.6417 -75.6472
189 1 11 0.0000 7.43753 10.7609 -76.451706
190 1 2 0.0000 9.1054 9.73102 -73.932
191 1 2 0.0000 11.1307 7.84549 -71.5075
192 1 8 0.0000 12.9083 9.9992695 -70.165
193 1 2 0.0000 11.7838 4.66451 -68.446
194 1 6 0.0000 14.4627 5.0038395 -69.4318
195 1 1 1.0000 17.0149 3.92781 -68.5761
196 1 2 0.0000 15.4696 1.2706699 -65.8337
197 1 6 0.0000 18.0685 2.51472 -63.736603
198 1 1 1.0000 17.5177 4.47392 -61.3669
199 1 4 0.0000 14.6349 -1.02757 -63.4534
200 1 6 0.0000 11.8294 -3.8075302 -62.1125
201 1 1 1.0000 8.83337 -4.80164 -61.7015
202 1 4 0.0000 13.159699 1.00149 -61.488197
203 1 16 0.0000 12.1944 -0.387471 -59.1436
204 1 4 0.0000 12.1639 3.06419 -63.9559
205 1 3 -1.0000 14.949301 6.12768 -64.8831
206 1 4 0.0000 10.541 0.70761704 -65.6532
207 1 7 0.0000 11.802799 -1.60569 -67.7875
208 1 1 1.0000 13.724999 -3.87715 -70.1494
209 1 7 0.0000 8.95216 -0.299892 -63.2517
210 1 3 -1.0000 7.0261297 -1.45935 -59.716602
211 1 7 0.0000 7.20289 2.32013 -62.216
212 1 3 -1.0000 6.2887297 -0.72313005 -60.0655
213 1 7 0.0000 5.8006296 2.61274 -65.198
214 1 8 0.0000 7.3157697 5.5783896 -65.4141
215 1 7 0.0000 4.0394897 -0.0981497 -64.8546
216 1 8 0.0000 5.21881 -2.92484 -64.6388
217 1 13 0.0000 2.52473 0.994498 -62.3966
218 1 7 0.0000 0.94809 3.2218099 -63.955597
219 1 14 0.0000 1.49242 5.22066 -65.5499
220 1 14 0.0000 2.4965498 5.7740803 -67.7745
221 1 15 0.0000 0.420802 7.61338 -66.693
222 1 7 0.0000 -0.5377 0.7756 -65.9532
223 1 8 0.0000 0.40933 -2.03996 -66.9335
224 1 7 0.0000 -1.69069 -1.04126 -63.278397
225 1 6 0.0000 0.939641 -3.4085398 -61.7495
226 1 1 1.0000 3.48632 -4.37326 -60.8729
227 1 9 0.0000 -3.10832 1.48273 -62.1032
228 1 6 0.0000 -2.8407698 1.5698899 -58.6736
229 1 1 1.0000 -4.00521 2.03374 -56.381897
230 1 7 0.0000 -5.3006897 2.00829 -64.295204
231 1 9 0.0000 -6.79672 -0.782902 -64.4227
232 1 16 0.0000 -8.70389 -1.22452 -66.3452
233 1 9 0.0000 -7.59835 -0.654803 -61.1694
234 1 2 0.0000 -6.0523896 -2.1971002 -58.9185
235 1 3 -1.0000 -7.41986 2.62534 -60.453
236 1 3 -1.0000 -8.082069 4.58868 -57.765396

Bonds

1 1 1 2
2 1 31 33
3 1 33 34
4 1 34 36
5 1 36 38
6 1 38 42
7 1 42 44
8 1 44 46
9 1 46 48
10 1 48 51
11 1 51 52
12 1 52 53
13 1 53 56
14 1 56 60
15 1 60 63
16 1 63 65
17 1 65 66
18 1 66 68
19 1 68 70
20 1 70 72
21 1 72 76
22 1 76 77
23 1 77 79
24 1 79 83
25 1 83 84
26 1 84 87
27 1 87 90
28 1 90 92
29 1 92 93
30 1 93 95
31 1 95 96
32 1 96 98
33 1 98 99
34 1 99 103
35 1 103 105
36 1 105 109
37 1 121 124
38 1 124 125
39 1 125 127
40 1 127 129
41 1 129 134
42 1 153 155
43 1 155 157
44 1 171 173
45 1 173 175
46 1 175 176
47 1 176 178
48 1 178 181
49 1 181 183
50 1 183 185
51 1 185 189
52 1 189 190
53 1 190 191
54 1 191 193
55 1 193 196
56 2 2 3
57 3 6 7
58 4 8 9
59 5 9 10
60 4 12 13
61 5 13 14
62 4 15 16
63 5 16 17
64 6 20 21
65 3 26 27
66 4 28 29
67 5 29 30
68 6 31 32
69 3 34 35
70 6 36 37
71 2 38 39
72 3 46 47
73 4 48 49
74 5 49 50
75 4 53 54
76 5 54 55
77 2 56 57
78 4 60 61
79 5 61 62
80 7 66 67
81 8 68 69
82 9 70 71
83 2 72 73
84 9 77 78
85 6 79 80
86 4 84 85
87 10 85 86
88 4 87 88
89 5 88 89
90 3 93 94
91 7 96 97
92 6 99 100
93 8 105 106
94 2 111 112
95 8 114 115
96 4 116 117
97 5 117 118
98 8 119 120
99 4 121 122
100 5 122 123
101 11 129 130
102 4 134 135
103 5 135 136
104 3 137 138
105 3 139 140
106 9 143 144
107 12 145 146
108 3 147 148
109 8 149 150
110 9 153 154
111 3 155 156
112 8 157 158
113 7 159 160
114 4 161 162
115 5 162 163
116 4 164 165
117 5 165 166
118 8 167 168
119 7 173 174
120 4 178 179
121 5 179 180
122 12 181 182
123 6 185 186
124 4 193 194
125 5 194 195
126 4 196 197
127 5 197 198
128 4 199 200
129 5 200 201
130 3 204 205
131 4 206 207
132 10 207 208
133 3 209 210
134 2 211 212
135 9 213 214
136 8 218 219
137 9 222 223
138 4 224 225
139 5 225 226
140 4 227 228
141 5 228 229
142 8 233 234
143 3 235 236
144 13 2 4
145 14 4 6
146 14 6 8
147 14 8 11
148 14 11 12
149 14 12 15
150 14 15 18
151 14 18 20
152 14 20 24
153 14 24 26
154 14 26 28
155 13 28 31
156 13 109 111
157 14 111 113
158 14 113 114
159 14 114 116
160 14 116 119
161 13 119 121
162 13 134 137
163 14 137 139
164 14 139 141
165 14 141 143
166 14 143 145
167 14 145 147
168 14 147 149
169 13 149 153
170 13 157 159
171 14 159 161
172 14 161 164
173 14 164 167
174 13 167 171
175 13 196 199
176 14 199 202
177 14 202 204
178 14 204 206
179 14 206 209
180 14 209 211
181 14 211 213
182 14 213 215
183 14 215 217
184 14 217 218
185 14 218 222
186 14 222 224
187 14 224 227
188 14 227 230
189 14 230 231
190 14 231 233
191 13 233 235
192 15 4 5
193 14 18 19
194 16 21 22
195 16 21 23
196 16 22 23
197 15 24 25
198 16 39 40
199 16 39 41
200 16 40 41
201 17 42 43
202 15 44 45
203 16 57 58
204 16 57 59
205 16 58 59
206 17 63 64
207 16 73 74
208 16 73 75
209 16 74 75
210 16 80 81
211 16 80 82
212 16 81 82
213 17 90 91
214 16 100 101
215 16 100 102
216 16 101 102
217 17 103 104
218 16 106 107
219 16 106 108
220 16 107 108
221 17 109 110
222 14 125 126
223 17 127 128
224 16 130 131
225 16 130 132
226 16 131 132
227 16 131 133
228 16 132 133
229 17 141 142
230 16 150 151
231 16 150 152
232 16 151 152
233 16 168 169
234 16 168 170
235 16 169 170
236 14 171 172
237 17 176 177
238 14 183 184
239 16 186 187
240 16 186 188
241 16 187 188
242 14 191 192
243 17 202 203
244 14 215 216
245 16 219 220
246 16 219 221
247 16 220 221
248 17 231 232

Angles

1 1 1 2 4
2 1 2 4 6
3 2 4 6 8
4 2 6 8 11
5 2 8 11 12
6 2 11 12 15
7 2 12 15 18
8 2 15 18 20
9 2 18 20 24
10 2 20 24 26
11 2 24 26 28
12 3 26 28 31
13 3 28 31 33
14 3 31 33 34
15 3 33 34 36
16 3 34 36 38
17 3 36 38 42
18 1 38 42 44
19 1 42 44 46
20 3 44 46 48
21 3 46 48 51
22 3 48 51 52
23 3 51 52 53
24 1 52 53 56
25 1 53 56 60
26 1 56 60 63
27 1 60 63 65
28 4 63 65 66
29 1 65 66 68
30 1 66 68 70
31 3 68 70 72
32 3 70 72 76
33 3 72 76 77
34 3 76 77 79
35 3 77 79 83
36 3 79 83 84
37 3 83 84 87
38 3 84 87 90
39 3 87 90 92
40 3 90 92 93
41 3 92 93 95
42 1 93 95 96
43 3 95 96 98
44 3 96 98 99
45 3 98 99 103
46 1 99 103 105
47 1 103 105 109
48 1 105 109 111
49 1 109 111 113
50 2 111 113 114
51 2 113 114 116
52 2 114 116 119
53 1 116 119 121
54 1 119 121 124
55 1 121 124 125
56 1 124 125 127
57 1 125 127 129
58 1 127 129 134
59 1 129 134 137
60 4 134 137 139
61 2 137 139 141
62 2 139 141 143
63 2 141 143 145
64 2 143 145 147
65 2 145 147 149
66 3 147 149 153
67 3 149 153 155
68 3 153 155 157
69 3 155 157 159
70 5 157 159 161
71 5 159 161 164
72 2 161 164 167
73 4 164 167 171
74 4 167 171 173
75 3 171 173 175
76 3 173 175 176
77 3 175 176 178
78 1 176 178 181
79 1 178 181 183
80 1 181 183 185
81 1 183 185 189
82 1 185 189 190
83 1 189 190 191
84 1 190 191 193
85 1 191 193 196
86 1 193 196 199
87 4 196 199 202
88 2 199 202 204
89 2 202 204 206
90 2 204 206 209
91 2 206 209 211
92 2 209 211 213
93 2 211 213 215
94 2 213 215 217
95 2 215 217 218
96 2 217 218 222
97 2 218 222 224
98 2 222 224 227
99 2 224 227 230
100 2 227 230 231
101 2 230 231 233
102 1 231 233 235
103 6 1 2 3
104 6 2 4 5
105 6 4 6 7
106 6 6 8 9
107 6 11 12 13
108 6 12 15 16
109 6 15 18 19
110 6 18 20 21
111 6 20 24 25
112 6 24 26 27
113 6 26 28 29
114 6 28 31 32
115 6 33 34 35
116 6 34 36 37
117 6 36 38 39
118 6 38 42 43
119 6 42 44 45
120 6 44 46 47
121 6 46 48 49
122 6 52 53 54
123 6 53 56 57
124 6 56 60 61
125 6 60 63 64
126 6 65 66 67
127 6 66 68 69
128 6 68 70 71
129 6 70 72 73
130 6 76 77 78
131 6 77 79 80
132 6 83 84 85
133 6 84 87 88
134 6 87 90 91
135 6 92 93 94
136 6 95 96 97
137 6 98 99 100
138 6 99 103 104
139 6 103 105 106
140 6 105 109 110
141 6 109 111 112
142 6 113 114 115
143 6 114 116 117
144 6 116 119 120
145 6 119 121 122
146 6 124 125 126
147 6 125 127 128
148 6 127 129 130
149 6 129 134 135
150 6 134 137 138
151 6 137 139 140
152 6 139 141 142
153 6 141 143 144
154 6 143 145 146
155 6 145 147 148
156 6 147 149 150
157 6 149 153 154
158 6 153 155 156
159 6 155 157 158
160 6 157 159 160
161 6 159 161 162
162 6 161 164 165
163 6 164 167 168
164 6 167 171 172
165 6 171 173 174
166 6 175 176 177
167 6 176 178 179
168 6 178 181 182
169 6 181 183 184
170 6 183 185 186
171 6 190 191 192
172 6 191 193 194
173 6 193 196 197
174 6 196 199 200
175 6 199 202 203
176 6 202 204 205
177 6 204 206 207
178 6 206 209 210
179 6 209 211 212
180 6 211 213 214
181 6 213 215 216
182 6 217 218 219
183 6 218 222 223
184 6 222 224 225
185 6 224 227 228
186 6 230 231 232
187 6 231 233 234
188 6 233 235 236
189 7 8 9 10
190 7 12 13 14
191 7 15 16 17
192 8 20 21 22
193 8 20 21 23
194 7 28 29 30
195 8 38 39 40
196 8 38 39 41
197 7 48 49 50
198 7 53 54 55
199 8 56 57 58
200 8 56 57 59
201 7 60 61 62
202 8 72 73 74
203 8 72 73 75
204 8 79 80 81
205 8 79 80 82
206 7 84 85 86
207 7 87 88 89
208 8 99 100 101
209 8 99 100 102
210 8 105 106 107
211 8 105 106 108
212 7 116 117 118
213 7 121 122 123
214 9 129 130 131
215 10 129 130 132
216 7 134 135 136
217 8 149 150 151
218 8 149 150 152
219 7 161 162 163
220 7 164 165 166
221 8 167 168 169
222 8 167 168 170
223 7 178 179 180
224 8 185 186 187
225 8 185 186 188
226 7 193 194 195
227 7 196 197 198
228 7 199 200 201
229 7 206 207 208
230 8 218 219 220
231 8 218 219 221
232 7 224 225 226
233 7 227 228 229

Dihedrals

1 1 4 6 8 11
2 1 6 8 11 12
3 1 8 11 12 15
4 1 11 12 15 18
5 1 12 15 18 20
6 1 15 18 20 24
7 1 18 20 24 26
8 1 20 24 26 28
9 1 111 113 114 116
10 1 113 114 116 119
11 1 137 139 141 143
12 1 139 141 143 145
13 1 141 143 145 147
14 1 143 145 147 149
15 1 159 161 164 167
16 1 199 202 204 206
17 1 202 204 206 209
18 1 204 206 209 211
19 1 206 209 211 213
20 1 209 211 213 215
21 1 211 213 215 217
22 1 213 215 217 218
23 1 215 217 218 222
24 1 217 218 222 224
25 1 218 222 224 227
26 1 222 224 227 230
27 1 224 227 230 231
28 1 227 230 231 233

Impropers

1 1 20 22 23 21
2 1 38 40 41 39
3 1 56 58 59 57
4 1 72 74 75 73
5 1 79 81 82 80
6 1 99 101 102 100
7 1 105 107 108 106
8 1 129 131 132 130
9 2 130 131 133 132
10 1 149 151 152 150
11 1 167 169 170 168
12 1 185 187 188 186
13 1 218 220 221 219

