comment

236 atoms
248 bonds
233 angles
28 dihedrals
13 impropers

17 atom types
17 bond types
10 angle types
1 dihedral types
2 improper types

-40.5 40.5 xlo xhi
-40.5 40.5 ylo yhi
-190.0 190.0 zlo zhi

Masses

1 72.0
2 72.0
3 72.0
4 72.0
5 72.0
6 72.0
7 72.0
8 72.0
9 72.0
10 45.0
11 72.0
12 72.0
13 72.0
14 45.0
15 45.0
16 72.0
17 45.0

PairIJ Coeffs

1 1 1.19503 4.699999999999999
1 2 1.3384336 4.699999999999999
1 3 1.3384336 4.699999999999999
1 4 0.956024 4.699999999999999
1 5 0.478012 4.699999999999999
1 6 0.5497137999999999 4.699999999999999
1 7 0.836521 4.699999999999999
1 8 0.478012 4.699999999999999
1 9 1.19503 4.699999999999999
1 10 0.7409186 4.699999999999999
1 11 1.3384336 4.699999999999999
1 12 1.19503 4.699999999999999
1 13 0.7409186 4.699999999999999
1 14 0.6453162 4.699999999999999
1 15 1.19503 4.699999999999999
1 16 1.19503 4.699999999999999
1 17 0.956024 4.699999999999999
2 2 1.3384336 4.699999999999999
2 3 1.3384336 4.699999999999999
2 4 1.19503 4.699999999999999
2 5 0.5497137999999999 4.699999999999999
2 6 0.6453162 4.699999999999999
2 7 0.836521 4.699999999999999
2 8 0.478012 4.699999999999999
2 9 1.19503 4.699999999999999
2 10 0.7409186 4.699999999999999
2 11 1.3384336 4.699999999999999
2 12 1.19503 4.699999999999999
2 13 0.7409186 4.699999999999999
2 14 0.6453162 4.699999999999999
2 15 1.3384336 4.699999999999999
2 16 1.3384336 4.699999999999999
2 17 1.19503 4.699999999999999
3 3 1.19503 4.699999999999999
3 4 1.19503 4.699999999999999
3 5 0.478012 4.699999999999999
3 6 0.5497137999999999 4.699999999999999
3 7 0.836521 4.699999999999999
3 8 0.478012 4.699999999999999
3 9 0.956024 4.699999999999999
3 10 0.7409186 4.699999999999999
3 11 1.3384336 4.699999999999999
3 12 1.19503 4.699999999999999
3 13 0.7409186 4.699999999999999
3 14 0.6453162 4.699999999999999
3 15 1.19503 4.699999999999999
3 16 1.19503 4.699999999999999
3 17 1.19503 4.699999999999999
4 4 0.956024 4.699999999999999
4 5 0.6453162 4.699999999999999
4 6 0.6453162 4.699999999999999
4 7 0.836521 4.699999999999999
4 8 0.6453162 4.699999999999999
4 9 1.075527 4.699999999999999
4 10 0.836521 4.699999999999999
4 11 0.956024 4.699999999999999
4 12 1.075527 4.699999999999999
4 13 0.836521 4.699999999999999
4 14 0.7409186 4.699999999999999
4 15 1.075527 4.699999999999999
4 16 1.075527 4.699999999999999
4 17 0.956024 4.699999999999999
5 5 0.836521 4.699999999999999
5 6 0.836521 4.699999999999999
5 7 0.7409186 4.699999999999999
5 8 0.836521 4.699999999999999
5 9 0.6453162 4.699999999999999
5 10 0.7409186 4.699999999999999
5 11 0.5497137999999999 4.699999999999999
5 12 0.6453162 4.699999999999999
5 13 0.7409186 4.699999999999999
5 14 0.7409186 4.699999999999999
5 15 0.7409186 4.699999999999999
5 16 0.7409186 4.699999999999999
5 17 0.6453162 4.699999999999999
6 6 0.836521 4.699999999999999
6 7 0.836521 4.699999999999999
6 8 0.836521 4.699999999999999
6 9 0.6453162 4.699999999999999
6 10 0.836521 4.699999999999999
6 11 0.6453162 4.699999999999999
6 12 0.6453162 4.699999999999999
6 13 0.836521 4.699999999999999
6 14 0.836521 4.699999999999999
6 15 0.836521 4.699999999999999
6 16 0.836521 4.699999999999999
6 17 0.6453162 4.699999999999999
7 7 0.836521 4.699999999999999
7 8 0.6453162 4.699999999999999
7 9 0.836521 4.699999999999999
7 10 0.836521 4.699999999999999
7 11 0.836521 4.699999999999999
7 12 0.836521 4.699999999999999
7 13 0.836521 4.699999999999999
7 14 0.836521 4.699999999999999
7 15 0.956024 4.699999999999999
7 16 0.956024 4.699999999999999
7 17 0.836521 4.699999999999999
8 8 0.836521 4.699999999999999
8 9 0.6453162 4.699999999999999
8 10 0.7409186 4.699999999999999
8 11 0.478012 4.699999999999999
8 12 0.6453162 4.699999999999999
8 13 0.7409186 4.699999999999999
8 14 0.7409186 4.699999999999999
8 15 0.6453162 4.699999999999999
8 16 0.6453162 4.699999999999999
8 17 0.6453162 4.699999999999999
9 9 0.956024 4.699999999999999
9 10 0.836521 4.699999999999999
9 11 0.956024 4.699999999999999
9 12 1.075527 4.699999999999999
9 13 0.836521 4.699999999999999
9 14 0.7409186 4.699999999999999
9 15 1.075527 4.699999999999999
9 16 1.075527 4.699999999999999
9 17 1.075527 4.699999999999999
10 10 0.62739075 4.3
10 11 0.7409186 4.699999999999999
10 12 0.836521 4.699999999999999
10 13 0.836521 4.699999999999999
10 14 0.62739075 4.3
10 15 0.62739075 4.3
10 16 0.836521 4.699999999999999
10 17 0.62739075 4.3
11 11 1.19503 4.699999999999999
11 12 0.956024 4.699999999999999
11 13 0.7409186 4.699999999999999
11 14 0.6453162 4.699999999999999
11 15 1.075527 4.699999999999999
11 16 1.075527 4.699999999999999
11 17 0.956024 4.699999999999999
12 12 1.075527 4.699999999999999
12 13 0.836521 4.699999999999999
12 14 0.7409186 4.699999999999999
12 15 1.075527 4.699999999999999
12 16 1.075527 4.699999999999999
12 17 1.075527 4.699999999999999
13 13 0.836521 4.699999999999999
13 14 0.836521 4.699999999999999
13 15 0.836521 4.699999999999999
13 16 0.836521 4.699999999999999
13 17 0.836521 4.699999999999999
14 14 0.62739075 4.3
14 15 0.62739075 4.3
14 16 0.836521 4.699999999999999
14 17 0.5556889500000001 4.3
15 15 0.80664525 4.3
15 16 1.075527 4.699999999999999
15 17 0.80664525 4.3
16 16 1.075527 4.699999999999999
16 17 1.075527 4.699999999999999
17 17 0.7170179999999999 4.3

Bond Coeffs

1 1.4937875 3.5
2 8.962725 3.2
3 5.97515 4.0
4 5.97515 3.3000000000000003
5 5.97515 2.8000000000000003
6 8.962725 3.1
7 8.962725 3.0
8 5.97515 3.2
9 8.962725 3.3000000000000003
10 5.97515 3.4000000000000004
11 5.97515 3.0
12 2.987575 4.0
13 11.9503 3.3000000000000003
14 11.9503 3.1
15 11.9503 2.6500000000000004
16 11.9503 2.7
17 11.9503 2.6

Angle Coeffs

1 2.39006 127
2 83.6521 96
3 2.39006 100
4 2.39006 130
5 11.9503 98
6 2.987575 100
7 2.987575 180
8 5.97515 150
9 5.97515 210
10 5.97515 90

Dihedral Coeffs

1 95.6024 1 -120 0

Improper Coeffs

1 5.97515 0
2 23.9006 0

Atoms

1 1 1 1.0000 1.2549999 -0.027 -48.818
2 1 2 0.0000 0.13445 0.245004 -51.165
3 1 3 -1.0000 -1.3209901 -0.856732 -53.3888
4 1 4 0.0000 1.73149 2.03531 -54.394
5 1 5 0.0000 2.6378598 1.0843899 -56.6469
6 1 4 0.0000 1.65789 5.4928102 -55.1438
7 1 3 -1.0000 -2.0900002 6.3819404 -56.255997
8 1 4 0.0000 4.25401 6.19379 -56.6997
9 1 6 0.0000 7.23921 4.47604 -56.2603
10 1 1 1.0000 7.97091 1.79675 -56.4318
11 1 4 0.0000 3.6646101 4.95334 -59.7153
12 1 7 0.0000 1.57252 7.4073896 -60.591003
13 1 6 0.0000 -1.8410001 6.8312 -61.034897
14 1 1 1.0000 -4.49605 6.4995904 -60.2781
15 1 7 0.0000 3.72422 9.83971 -59.909702
16 1 6 0.0000 2.01666 11.5942 -57.7059
17 1 1 1.0000 0.37891203 10.5374 -56.089703
18 1 7 0.0000 6.06996 9.22887 -61.9851
19 1 8 0.0000 8.475019 7.6342397 -60.9374
20 1 9 0.0000 4.60016 9.812611 -64.7475
21 1 10 0.0000 5.39711 9.40051 -67.5257
22 1 10 0.0000 5.26744 9.10176 -70.4836
23 1 10 0.0000 7.5171 9.22064 -69.1734
24 1 9 0.0000 3.56624 12.6836 -64.0986
25 1 5 0.0000 1.36465 14.098701 -64.767
26 1 9 0.0000 6.3140798 14.0881 -63.294502
27 1 11 0.0000 5.1889 17.5797 -64.6573
28 1 9 0.0000 7.78813 13.5675 -65.912796
29 1 6 0.0000 9.68899 10.8558 -64.9654
30 1 1 1.0000 11.379 8.660709 -65.1501
31 1 12 0.0000 6.53394 14.375 -68.878395
32 1 13 0.0000 8.940969 13.5798 -71.3697
33 1 7 0.0000 4.19814 13.9637 -70.1145
34 1 12 0.0000 1.55862 12.4162 -68.7328
35 1 11 0.0000 -0.651788 16.066 -68.5505
36 1 12 0.0000 -0.124864995 12.1106 -71.3739
37 1 13 0.0000 -1.27604 15.2696 -71.7816
38 1 2 0.0000 -0.929496 8.69191 -71.4695
39 1 14 0.0000 1.83841 7.5219 -72.438995
40 1 15 0.0000 3.52733 5.38621 -72.562096
41 1 15 0.0000 3.95432 7.59151 -74.340904
42 1 2 0.0000 -4.74303 7.35312 -71.897705
43 1 16 0.0000 -4.8459396 8.033279 -74.2872
44 1 2 0.0000 -5.34437 7.34786 -69.1944
45 1 5 0.0000 -3.76901 5.7238603 -67.7855
46 1 2 0.0000 -7.9882197 6.4808397 -65.9208
47 1 3 -1.0000 -5.8001604 9.51647 -63.6265
48 1 12 0.0000 -11.486 3.7311802 -64.6671
49 1 6 0.0000 -12.2587 2.48786 -61.6292
50 1 1 1.0000 -11.7546 2.1215 -58.8941
51 1 12 0.0000 -12.7824 5.82253 -67.7293
52 1 2 0.0000 -10.3201 6.8607097 -68.0536
53 1 2 0.0000 -10.9743 10.703 -66.4995
54 1 6 0.0000 -10.8489 9.40647 -63.4814
55 1 1 1.0000 -9.81063 7.35204 -61.3121
56 1 2 0.0000 -8.999721 11.6404 -70.233
57 1 14 0.0000 -10.3415 9.38295 -71.7265
58 1 15 0.0000 -9.9137 7.08422 -72.8227
59 1 15 0.0000 -12.6086 8.0228 -72.3331
60 1 2 0.0000 -5.6009398 12.7054 -71.412704
61 1 6 0.0000 -4.27002 12.127399 -68.5792
62 1 1 1.0000 -2.86656 11.4412 -66.6748
63 1 2 0.0000 -3.3151503 12.807899 -75.5979
64 1 16 0.0000 -2.9656699 15.0401 -76.9698
65 1 2 0.0000 -0.634385 10.6855 -76.044304
66 1 11 0.0000 0.286425 7.99931 -77.337296
67 1 6 0.0000 1.5172399 6.21346 -79.3282
68 1 2 0.0000 -1.54612 4.75008 -75.4875
69 1 2 0.0000 -3.6943502 4.32293 -77.0457
70 1 2 0.0000 -2.38081 2.56335 -72.7069
71 1 8 0.0000 -0.304018 3.4941 -70.4799
72 1 12 0.0000 -6.04469 2.49057 -74.282
73 1 14 0.0000 -7.38276 3.32092 -71.6736
74 1 15 0.0000 -9.58851 2.59233 -70.6213
75 1 15 0.0000 -7.3179603 2.7096798 -69.2374
76 1 12 0.0000 -7.98197 -0.93790704 -73.5209
77 1 2 0.0000 -5.73883 -2.00845 -71.2818
78 1 8 0.0000 -4.02391 -0.811239 -68.6554
79 1 12 0.0000 -6.1532 -5.43788 -70.0154
80 1 10 0.0000 -4.74331 -6.00704 -67.2172
81 1 10 0.0000 -3.0174499 -5.92242 -65.2215
82 1 10 0.0000 -5.26557 -7.49842 -65.1446
83 1 12 0.0000 -5.69906 -8.10033 -72.6044
84 1 2 0.0000 -6.47303 -6.75157 -75.3383
85 1 7 0.0000 -4.23033 -4.32394 -74.9842
86 1 1 1.0000 -3.20506 -1.29501 -75.7472
87 1 2 0.0000 -3.30655 -7.56998 -79.1204
88 1 6 0.0000 -0.401428 -9.22402 -80.0085
89 1 1 1.0000 0.694493 -7.84929 -82.2735
90 1 12 0.0000 -1.9460299 -4.43815 -80.042
91 1 16 0.0000 0.232941 -3.88908 -78.7605
92 1 12 0.0000 -4.40646 -3.27553 -82.229996
93 1 2 0.0000 -6.34619 -1.1846 -79.6363
94 1 11 0.0000 -8.76478 -3.6033401 -77.6749
95 1 11 0.0000 -8.57809 1.26262 -79.5217
96 1 7 0.0000 -10.2112 3.99969 -76.9256
97 1 6 0.0000 -11.824699 3.26285 -75.1696
98 1 12 0.0000 -8.44868 6.62637 -77.6166
99 1 2 0.0000 -7.72484 5.1731997 -81.5839
100 1 10 0.0000 -7.08781 7.88985 -82.8558
101 1 10 0.0000 -5.38575 8.78633 -84.7775
102 1 10 0.0000 -6.95319 10.387699 -83.5
103 1 2 0.0000 -4.42579 3.35904 -81.942795
104 1 16 0.0000 -4.8731 1.91126 -84.1154
105 1 2 0.0000 -1.9189601 5.39125 -82.5932
106 1 14 0.0000 -2.47807 8.20838 -81.15401
107 1 14 0.0000 -4.2669 9.2531595 -79.6424
108 1 15 0.0000 -3.04488 10.5951 -81.2254
109 1 2 0.0000 -0.396676 4.91532 -85.5896
110 1 16 0.0000 -1.57602 5.9648104 -87.617905
111 1 4 0.0000 1.92962 2.2680202 -85.5419
112 1 3 -1.0000 2.45652 1.2093 -88.5036
113 1 7 0.0000 2.26501 2.00331 -82.6308
114 1 12 0.0000 -0.492014 0.478372 -82.1402
115 1 2 0.0000 -0.583935 1.02077 -78.9868
116 1 12 0.0000 -0.0169329 -1.98751 -84.1811
117 1 6 0.0000 -2.23653 -1.19292 -86.7099
118 1 1 1.0000 -1.83075 0.697403 -88.9081
119 1 9 0.0000 3.0050502 -3.0304399 -83.1503
120 1 2 0.0000 4.47323 -2.59784 -86.1098
121 1 2 0.0000 4.77841 -4.62877 -81.07291
122 1 6 0.0000 8.32689 -4.93996 -80.97861
123 1 1 1.0000 10.742901 -5.7660003 -78.6658
124 1 2 0.0000 4.33137 -6.8906097 -79.295204
125 1 2 0.0000 2.5120802 -7.79162 -76.6998
126 1 8 0.0000 3.14535 -10.7253 -76.1354
127 1 2 0.0000 -0.45267498 -7.64579 -74.7472
128 1 16 0.0000 -1.6099 -9.91041 -75.150696
129 1 2 0.0000 -1.19743 -8.13521 -70.3905
130 1 14 0.0000 -1.21765 -4.8719997 -70.6879
131 1 17 0.0000 -0.22404101 -2.47056 -71.378494
132 1 10 0.0000 0.187112 -4.5637197 -72.9684
133 1 10 0.0000 1.15958 -2.17401 -73.5624
134 1 2 0.0000 0.0886706 -9.35947 -66.832
135 1 6 0.0000 2.05056 -11.9744005 -66.2566
136 1 1 1.0000 4.82011 -11.561399 -65.3117
137 1 4 0.0000 2.51487 -6.53673 -66.0686
138 1 3 -1.0000 5.4301 -7.3923497 -63.127598
139 1 4 0.0000 5.0747104 -7.49428 -67.793396
140 1 3 -1.0000 5.68381 -7.71549 -63.1173
141 1 4 0.0000 4.26394 -5.99709 -70.618904
142 1 16 0.0000 4.15433 -8.22134 -72.1318
143 1 12 0.0000 4.4783897 -2.96507 -69.520706
144 1 8 0.0000 3.72141 -0.0146846995 -69.9382
145 1 9 0.0000 7.65599 -3.2231598 -68.7596
146 1 13 0.0000 9.84327 -6.3516498 -66.6842
147 1 9 0.0000 8.97786 -3.58224 -71.8044
148 1 3 -1.0000 12.257299 -3.9538198 -74.5061
149 1 9 0.0000 7.67698 -0.597521 -72.674095
150 1 14 0.0000 5.0300903 1.13506 -74.3778
151 1 14 0.0000 4.3663797 2.9723098 -76.2284
152 1 15 0.0000 2.42094 1.85416 -74.7677
153 1 12 0.0000 8.73891 1.4372399 -70.5978
154 1 8 0.0000 7.16267 3.54229 -69.584
155 1 12 0.0000 12.1012 1.20609 -72.392
156 1 3 -1.0000 16.0739 0.79712695 -70.7885
157 1 2 0.0000 12.557499 3.77449 -74.3527
158 1 2 0.0000 15.7513 5.1946 -74.241196
159 1 7 0.0000 9.86878 3.60989 -76.2198
160 1 6 0.0000 8.30691 5.14436 -74.0729
161 1 12 0.0000 11.1692 2.96042 -78.9614
162 1 6 0.0000 13.063999 6.09936 -78.288795
163 1 1 1.0000 12.8541 8.35055 -77.253
164 1 12 0.0000 11.519099 -0.0904323 -78.4099
165 1 6 0.0000 14.7637 -0.30908102 -77.8209
166 1 1 1.0000 15.8954 -1.00562 -75.201805
167 1 12 0.0000 8.47225 -0.981943 -77.8894
168 1 14 0.0000 7.25419 -3.5089202 -76.6093
169 1 14 0.0000 4.94718 -4.02599 -75.472496
170 1 15 0.0000 7.05548 -5.7256503 -75.433105
171 1 2 0.0000 6.27471 0.23252301 -79.914795
172 1 8 0.0000 3.80797 -0.624254 -79.112305
173 1 7 0.0000 6.8747096 0.67557096 -82.72839
174 1 6 0.0000 8.48371 -1.09289 -84.6597
175 1 12 0.0000 8.7998905 3.38927 -82.97401
176 1 2 0.0000 6.42287 5.4792304 -80.681496
177 1 16 0.0000 6.7742596 6.38176 -78.5362
178 1 2 0.0000 3.9005601 6.91 -83.3755
179 1 6 0.0000 6.0239897 6.0618105 -85.6564
180 1 1 1.0000 6.3303604 3.3625002 -87.35091
181 1 2 0.0000 2.43135 9.36195 -83.83971
182 1 13 0.0000 2.31272 9.41575 -87.3193
183 1 2 0.0000 2.1293101 10.9264 -80.77249
184 1 8 0.0000 1.20707 13.7237 -81.1969
185 1 2 0.0000 4.60064 11.2948 -77.8424
186 1 10 0.0000 3.24618 13.260099 -76.0523
187 1 10 0.0000 4.0215 15.7929 -75.1689
188 1 10 0.0000 1.6471399 15.2183 -75.3341
189 1 11 0.0000 7.70917 10.963499 -75.7791
190 1 2 0.0000 9.07229 9.39024 -73.6028
191 1 2 0.0000 11.7802 7.90513 -71.3565
192 1 8 0.0000 12.3008 10.4862 -69.7771
193 1 2 0.0000 12.3496 4.79388 -68.7822
194 1 6 0.0000 15.1304 5.16056 -69.0282
195 1 1 1.0000 17.4923 4.63971 -68.786705
196 1 2 0.0000 15.447901 1.31253 -65.9944
197 1 6 0.0000 18.218 2.1010098 -64.15
198 1 1 1.0000 18.156101 3.7328198 -61.525898
199 1 4 0.0000 14.5955 -1.07462 -63.7431
200 1 6 0.0000 11.9121 -3.6628602 -62.377098
201 1 1 1.0000 9.07046 -4.83416 -61.7589
202 1 4 0.0000 13.1116 0.98883003 -61.5822
203 1 16 0.0000 11.8466 -0.056057103 -59.828
204 1 4 0.0000 11.925301 3.1312702 -63.7079
205 1 3 -1.0000 15.2052 5.97515 -64.3548
206 1 4 0.0000 10.511399 1.13533 -65.854004
207 1 7 0.0000 11.690399 -1.1238201 -67.8068
208 1 1 1.0000 13.3386 -2.9453301 -69.843
209 1 7 0.0000 8.68943 -0.480461 -63.7895
210 1 3 -1.0000 6.86386 -1.40135 -59.6386
211 1 7 0.0000 7.15936 2.0443401 -62.510902
212 1 3 -1.0000 6.4233704 -0.57422704 -59.9987
213 1 7 0.0000 5.4100604 2.75146 -65.3765
214 1 8 0.0000 7.0951996 5.67239 -65.394
215 1 7 0.0000 4.15741 -0.0646146 -65.2227
216 1 8 0.0000 4.81509 -2.94323 -64.6641
217 1 13 0.0000 2.5267699 0.802707 -62.2986
218 1 7 0.0000 0.723639 2.91842 -63.853203
219 1 14 0.0000 1.6935999 5.3939905 -65.3298
220 1 14 0.0000 2.22607 6.6146703 -67.6755
221 1 15 0.0000 0.228113 7.6444297 -66.462494
222 1 7 0.0000 -0.853413 0.558624 -65.8101
223 1 8 0.0000 0.640361 -2.37524 -66.6699
224 1 7 0.0000 -1.99099 -1.02919 -63.011898
225 1 6 0.0000 0.265849 -3.64156 -61.5624
226 1 1 1.0000 3.2530098 -4.24764 -60.5048
227 1 9 0.0000 -3.3740802 1.44686 -61.946102
228 1 6 0.0000 -3.18605 2.27745 -58.7192
229 1 1 1.0000 -4.0345 2.18469 -56.0821
230 1 7 0.0000 -5.20152 2.47906 -64.3743
231 1 9 0.0000 -7.0046196 -0.23126099 -64.5125
232 1 16 0.0000 -8.74751 -1.03214 -66.480896
233 1 9 0.0000 -7.9989 0.0515742 -61.64
234 1 2 0.0000 -6.31305 -1.9166801 -59.0541
235 1 3 -1.0000 -7.4880304 3.12489 -60.277
236 1 3 -1.0000 -8.1972 4.78873 -57.706398

Bonds

1 1 1 2
2 1 31 33
3 1 33 34
4 1 34 36
5 1 36 38
6 1 38 42
7 1 42 44
8 1 44 46
9 1 46 48
10 1 48 51
11 1 51 52
12 1 52 53
13 1 53 56
14 1 56 60
15 1 60 63
16 1 63 65
17 1 65 66
18 1 66 68
19 1 68 70
20 1 70 72
21 1 72 76
22 1 76 77
23 1 77 79
24 1 79 83
25 1 83 84
26 1 84 87
27 1 87 90
28 1 90 92
29 1 92 93
30 1 93 95
31 1 95 96
32 1 96 98
33 1 98 99
34 1 99 103
35 1 103 105
36 1 105 109
37 1 121 124
38 1 124 125
39 1 125 127
40 1 127 129
41 1 129 134
42 1 153 155
43 1 155 157
44 1 171 173
45 1 173 175
46 1 175 176
47 1 176 178
48 1 178 181
49 1 181 183
50 1 183 185
51 1 185 189
52 1 189 190
53 1 190 191
54 1 191 193
55 1 193 196
56 2 2 3
57 3 6 7
58 4 8 9
59 5 9 10
60 4 12 13
61 5 13 14
62 4 15 16
63 5 16 17
64 6 20 21
65 3 26 27
66 4 28 29
67 5 29 30
68 6 31 32
69 3 34 35
70 6 36 37
71 2 38 39
72 3 46 47
73 4 48 49
74 5 49 50
75 4 53 54
76 5 54 55
77 2 56 57
78 4 60 61
79 5 61 62
80 7 66 67
81 8 68 69
82 9 70 71
83 2 72 73
84 9 77 78
85 6 79 80
86 4 84 85
87 10 85 86
88 4 87 88
89 5 88 89
90 3 93 94
91 7 96 97
92 6 99 100
93 8 105 106
94 2 111 112
95 8 114 115
96 4 116 117
97 5 117 118
98 8 119 120
99 4 121 122
100 5 122 123
101 11 129 130
102 4 134 135
103 5 135 136
104 3 137 138
105 3 139 140
106 9 143 144
107 12 145 146
108 3 147 148
109 8 149 150
110 9 153 154
111 3 155 156
112 8 157 158
113 7 159 160
114 4 161 162
115 5 162 163
116 4 164 165
117 5 165 166
118 8 167 168
119 7 173 174
120 4 178 179
121 5 179 180
122 12 181 182
123 6 185 186
124 4 193 194
125 5 194 195
126 4 196 197
127 5 197 198
128 4 199 200
129 5 200 201
130 3 204 205
131 4 206 207
132 10 207 208
133 3 209 210
134 2 211 212
135 9 213 214
136 8 218 219
137 9 222 223
138 4 224 225
139 5 225 226
140 4 227 228
141 5 228 229
142 8 233 234
143 3 235 236
144 13 2 4
145 14 4 6
146 14 6 8
147 14 8 11
148 14 11 12
149 14 12 15
150 14 15 18
151 14 18 20
152 14 20 24
153 14 24 26
154 14 26 28
155 13 28 31
156 13 109 111
157 14 111 113
158 14 113 114
159 14 114 116
160 14 116 119
161 13 119 121
162 13 134 137
163 14 137 139
164 14 139 141
165 14 141 143
166 14 143 145
167 14 145 147
168 14 147 149
169 13 149 153
170 13 157 159
171 14 159 161
172 14 161 164
173 14 164 167
174 13 167 171
175 13 196 199
176 14 199 202
177 14 202 204
178 14 204 206
179 14 206 209
180 14 209 211
181 14 211 213
182 14 213 215
183 14 215 217
184 14 217 218
185 14 218 222
186 14 222 224
187 14 224 227
188 14 227 230
189 14 230 231
190 14 231 233
191 13 233 235
192 15 4 5
193 14 18 19
194 16 21 22
195 16 21 23
196 16 22 23
197 15 24 25
198 16 39 40
199 16 39 41
200 16 40 41
201 17 42 43
202 15 44 45
203 16 57 58
204 16 57 59
205 16 58 59
206 17 63 64
207 16 73 74
208 16 73 75
209 16 74 75
210 16 80 81
211 16 80 82
212 16 81 82
213 17 90 91
214 16 100 101
215 16 100 102
216 16 101 102
217 17 103 104
218 16 106 107
219 16 106 108
220 16 107 108
221 17 109 110
222 14 125 126
223 17 127 128
224 16 130 131
225 16 130 132
226 16 131 132
227 16 131 133
228 16 132 133
229 17 141 142
230 16 150 151
231 16 150 152
232 16 151 152
233 16 168 169
234 16 168 170
235 16 169 170
236 14 171 172
237 17 176 177
238 14 183 184
239 16 186 187
240 16 186 188
241 16 187 188
242 14 191 192
243 17 202 203
244 14 215 216
245 16 219 220
246 16 219 221
247 16 220 221
248 17 231 232

Angles

1 1 1 2 4
2 1 2 4 6
3 2 4 6 8
4 2 6 8 11
5 2 8 11 12
6 2 11 12 15
7 2 12 15 18
8 2 15 18 20
9 2 18 20 24
10 2 20 24 26
11 2 24 26 28
12 3 26 28 31
13 3 28 31 33
14 3 31 33 34
15 3 33 34 36
16 3 34 36 38
17 3 36 38 42
18 1 38 42 44
19 1 42 44 46
20 3 44 46 48
21 3 46 48 51
22 3 48 51 52
23 3 51 52 53
24 1 52 53 56
25 1 53 56 60
26 1 56 60 63
27 1 60 63 65
28 4 63 65 66
29 1 65 66 68
30 1 66 68 70
31 3 68 70 72
32 3 70 72 76
33 3 72 76 77
34 3 76 77 79
35 3 77 79 83
36 3 79 83 84
37 3 83 84 87
38 3 84 87 90
39 3 87 90 92
40 3 90 92 93
41 3 92 93 95
42 1 93 95 96
43 3 95 96 98
44 3 96 98 99
45 3 98 99 103
46 1 99 103 105
47 1 103 105 109
48 1 105 109 111
49 1 109 111 113
50 2 111 113 114
51 2 113 114 116
52 2 114 116 119
53 1 116 119 121
54 1 119 121 124
55 1 121 124 125
56 1 124 125 127
57 1 125 127 129
58 1 127 129 134
59 1 129 134 137
60 4 134 137 139
61 2 137 139 141
62 2 139 141 143
63 2 141 143 145
64 2 143 145 147
65 2 145 147 149
66 3 147 149 153
67 3 149 153 155
68 3 153 155 157
69 3 155 157 159
70 5 157 159 161
71 5 159 161 164
72 2 161 164 167
73 4 164 167 171
74 4 167 171 173
75 3 171 173 175
76 3 173 175 176
77 3 175 176 178
78 1 176 178 181
79 1 178 181 183
80 1 181 183 185
81 1 183 185 189
82 1 185 189 190
83 1 189 190 191
84 1 190 191 193
85 1 191 193 196
86 1 193 196 199
87 4 196 199 202
88 2 199 202 204
89 2 202 204 206
90 2 204 206 209
91 2 206 209 211
92 2 209 211 213
93 2 211 213 215
94 2 213 215 217
95 2 215 217 218
96 2 217 218 222
97 2 218 222 224
98 2 222 224 227
99 2 224 227 230
100 2 227 230 231
101 2 230 231 233
102 1 231 233 235
103 6 1 2 3
104 6 2 4 5
105 6 4 6 7
106 6 6 8 9
107 6 11 12 13
108 6 12 15 16
109 6 15 18 19
110 6 18 20 21
111 6 20 24 25
112 6 24 26 27
113 6 26 28 29
114 6 28 31 32
115 6 33 34 35
116 6 34 36 37
117 6 36 38 39
118 6 38 42 43
119 6 42 44 45
120 6 44 46 47
121 6 46 48 49
122 6 52 53 54
123 6 53 56 57
124 6 56 60 61
125 6 60 63 64
126 6 65 66 67
127 6 66 68 69
128 6 68 70 71
129 6 70 72 73
130 6 76 77 78
131 6 77 79 80
132 6 83 84 85
133 6 84 87 88
134 6 87 90 91
135 6 92 93 94
136 6 95 96 97
137 6 98 99 100
138 6 99 103 104
139 6 103 105 106
140 6 105 109 110
141 6 109 111 112
142 6 113 114 115
143 6 114 116 117
144 6 116 119 120
145 6 119 121 122
146 6 124 125 126
147 6 125 127 128
148 6 127 129 130
149 6 129 134 135
150 6 134 137 138
151 6 137 139 140
152 6 139 141 142
153 6 141 143 144
154 6 143 145 146
155 6 145 147 148
156 6 147 149 150
157 6 149 153 154
158 6 153 155 156
159 6 155 157 158
160 6 157 159 160
161 6 159 161 162
162 6 161 164 165
163 6 164 167 168
164 6 167 171 172
165 6 171 173 174
166 6 175 176 177
167 6 176 178 179
168 6 178 181 182
169 6 181 183 184
170 6 183 185 186
171 6 190 191 192
172 6 191 193 194
173 6 193 196 197
174 6 196 199 200
175 6 199 202 203
176 6 202 204 205
177 6 204 206 207
178 6 206 209 210
179 6 209 211 212
180 6 211 213 214
181 6 213 215 216
182 6 217 218 219
183 6 218 222 223
184 6 222 224 225
185 6 224 227 228
186 6 230 231 232
187 6 231 233 234
188 6 233 235 236
189 7 8 9 10
190 7 12 13 14
191 7 15 16 17
192 8 20 21 22
193 8 20 21 23
194 7 28 29 30
195 8 38 39 40
196 8 38 39 41
197 7 48 49 50
198 7 53 54 55
199 8 56 57 58
200 8 56 57 59
201 7 60 61 62
202 8 72 73 74
203 8 72 73 75
204 8 79 80 81
205 8 79 80 82
206 7 84 85 86
207 7 87 88 89
208 8 99 100 101
209 8 99 100 102
210 8 105 106 107
211 8 105 106 108
212 7 116 117 118
213 7 121 122 123
214 9 129 130 131
215 10 129 130 132
216 7 134 135 136
217 8 149 150 151
218 8 149 150 152
219 7 161 162 163
220 7 164 165 166
221 8 167 168 169
222 8 167 168 170
223 7 178 179 180
224 8 185 186 187
225 8 185 186 188
226 7 193 194 195
227 7 196 197 198
228 7 199 200 201
229 7 206 207 208
230 8 218 219 220
231 8 218 219 221
232 7 224 225 226
233 7 227 228 229

Dihedrals

1 1 4 6 8 11
2 1 6 8 11 12
3 1 8 11 12 15
4 1 11 12 15 18
5 1 12 15 18 20
6 1 15 18 20 24
7 1 18 20 24 26
8 1 20 24 26 28
9 1 111 113 114 116
10 1 113 114 116 119
11 1 137 139 141 143
12 1 139 141 143 145
13 1 141 143 145 147
14 1 143 145 147 149
15 1 159 161 164 167
16 1 199 202 204 206
17 1 202 204 206 209
18 1 204 206 209 211
19 1 206 209 211 213
20 1 209 211 213 215
21 1 211 213 215 217
22 1 213 215 217 218
23 1 215 217 218 222
24 1 217 218 222 224
25 1 218 222 224 227
26 1 222 224 227 230
27 1 224 227 230 231
28 1 227 230 231 233

Impropers

1 1 20 22 23 21
2 1 38 40 41 39
3 1 56 58 59 57
4 1 72 74 75 73
5 1 79 81 82 80
6 1 99 101 102 100
7 1 105 107 108 106
8 1 129 131 132 130
9 2 130 131 133 132
10 1 149 151 152 150
11 1 167 169 170 168
12 1 185 187 188 186
13 1 218 220 221 219

