comment

236 atoms
248 bonds
233 angles
28 dihedrals
13 impropers

17 atom types
17 bond types
10 angle types
1 dihedral types
2 improper types

-40.5 40.5 xlo xhi
-40.5 40.5 ylo yhi
-190.0 190.0 zlo zhi

Masses

1 72.0
2 72.0
3 72.0
4 72.0
5 72.0
6 72.0
7 72.0
8 72.0
9 72.0
10 45.0
11 72.0
12 72.0
13 72.0
14 45.0
15 45.0
16 72.0
17 45.0

PairIJ Coeffs

1 1 1.19503 4.699999999999999
1 2 1.3384336 4.699999999999999
1 3 1.3384336 4.699999999999999
1 4 0.956024 4.699999999999999
1 5 0.478012 4.699999999999999
1 6 0.5497137999999999 4.699999999999999
1 7 0.836521 4.699999999999999
1 8 0.478012 4.699999999999999
1 9 1.19503 4.699999999999999
1 10 0.7409186 4.699999999999999
1 11 1.3384336 4.699999999999999
1 12 1.19503 4.699999999999999
1 13 0.7409186 4.699999999999999
1 14 0.6453162 4.699999999999999
1 15 1.19503 4.699999999999999
1 16 1.19503 4.699999999999999
1 17 0.956024 4.699999999999999
2 2 1.3384336 4.699999999999999
2 3 1.3384336 4.699999999999999
2 4 1.19503 4.699999999999999
2 5 0.5497137999999999 4.699999999999999
2 6 0.6453162 4.699999999999999
2 7 0.836521 4.699999999999999
2 8 0.478012 4.699999999999999
2 9 1.19503 4.699999999999999
2 10 0.7409186 4.699999999999999
2 11 1.3384336 4.699999999999999
2 12 1.19503 4.699999999999999
2 13 0.7409186 4.699999999999999
2 14 0.6453162 4.699999999999999
2 15 1.3384336 4.699999999999999
2 16 1.3384336 4.699999999999999
2 17 1.19503 4.699999999999999
3 3 1.19503 4.699999999999999
3 4 1.19503 4.699999999999999
3 5 0.478012 4.699999999999999
3 6 0.5497137999999999 4.699999999999999
3 7 0.836521 4.699999999999999
3 8 0.478012 4.699999999999999
3 9 0.956024 4.699999999999999
3 10 0.7409186 4.699999999999999
3 11 1.3384336 4.699999999999999
3 12 1.19503 4.699999999999999
3 13 0.7409186 4.699999999999999
3 14 0.6453162 4.699999999999999
3 15 1.19503 4.699999999999999
3 16 1.19503 4.699999999999999
3 17 1.19503 4.699999999999999
4 4 0.956024 4.699999999999999
4 5 0.6453162 4.699999999999999
4 6 0.6453162 4.699999999999999
4 7 0.836521 4.699999999999999
4 8 0.6453162 4.699999999999999
4 9 1.075527 4.699999999999999
4 10 0.836521 4.699999999999999
4 11 0.956024 4.699999999999999
4 12 1.075527 4.699999999999999
4 13 0.836521 4.699999999999999
4 14 0.7409186 4.699999999999999
4 15 1.075527 4.699999999999999
4 16 1.075527 4.699999999999999
4 17 0.956024 4.699999999999999
5 5 0.836521 4.699999999999999
5 6 0.836521 4.699999999999999
5 7 0.7409186 4.699999999999999
5 8 0.836521 4.699999999999999
5 9 0.6453162 4.699999999999999
5 10 0.7409186 4.699999999999999
5 11 0.5497137999999999 4.699999999999999
5 12 0.6453162 4.699999999999999
5 13 0.7409186 4.699999999999999
5 14 0.7409186 4.699999999999999
5 15 0.7409186 4.699999999999999
5 16 0.7409186 4.699999999999999
5 17 0.6453162 4.699999999999999
6 6 0.836521 4.699999999999999
6 7 0.836521 4.699999999999999
6 8 0.836521 4.699999999999999
6 9 0.6453162 4.699999999999999
6 10 0.836521 4.699999999999999
6 11 0.6453162 4.699999999999999
6 12 0.6453162 4.699999999999999
6 13 0.836521 4.699999999999999
6 14 0.836521 4.699999999999999
6 15 0.836521 4.699999999999999
6 16 0.836521 4.699999999999999
6 17 0.6453162 4.699999999999999
7 7 0.836521 4.699999999999999
7 8 0.6453162 4.699999999999999
7 9 0.836521 4.699999999999999
7 10 0.836521 4.699999999999999
7 11 0.836521 4.699999999999999
7 12 0.836521 4.699999999999999
7 13 0.836521 4.699999999999999
7 14 0.836521 4.699999999999999
7 15 0.956024 4.699999999999999
7 16 0.956024 4.699999999999999
7 17 0.836521 4.699999999999999
8 8 0.836521 4.699999999999999
8 9 0.6453162 4.699999999999999
8 10 0.7409186 4.699999999999999
8 11 0.478012 4.699999999999999
8 12 0.6453162 4.699999999999999
8 13 0.7409186 4.699999999999999
8 14 0.7409186 4.699999999999999
8 15 0.6453162 4.699999999999999
8 16 0.6453162 4.699999999999999
8 17 0.6453162 4.699999999999999
9 9 0.956024 4.699999999999999
9 10 0.836521 4.699999999999999
9 11 0.956024 4.699999999999999
9 12 1.075527 4.699999999999999
9 13 0.836521 4.699999999999999
9 14 0.7409186 4.699999999999999
9 15 1.075527 4.699999999999999
9 16 1.075527 4.699999999999999
9 17 1.075527 4.699999999999999
10 10 0.62739075 4.3
10 11 0.7409186 4.699999999999999
10 12 0.836521 4.699999999999999
10 13 0.836521 4.699999999999999
10 14 0.62739075 4.3
10 15 0.62739075 4.3
10 16 0.836521 4.699999999999999
10 17 0.62739075 4.3
11 11 1.19503 4.699999999999999
11 12 0.956024 4.699999999999999
11 13 0.7409186 4.699999999999999
11 14 0.6453162 4.699999999999999
11 15 1.075527 4.699999999999999
11 16 1.075527 4.699999999999999
11 17 0.956024 4.699999999999999
12 12 1.075527 4.699999999999999
12 13 0.836521 4.699999999999999
12 14 0.7409186 4.699999999999999
12 15 1.075527 4.699999999999999
12 16 1.075527 4.699999999999999
12 17 1.075527 4.699999999999999
13 13 0.836521 4.699999999999999
13 14 0.836521 4.699999999999999
13 15 0.836521 4.699999999999999
13 16 0.836521 4.699999999999999
13 17 0.836521 4.699999999999999
14 14 0.62739075 4.3
14 15 0.62739075 4.3
14 16 0.836521 4.699999999999999
14 17 0.5556889500000001 4.3
15 15 0.80664525 4.3
15 16 1.075527 4.699999999999999
15 17 0.80664525 4.3
16 16 1.075527 4.699999999999999
16 17 1.075527 4.699999999999999
17 17 0.7170179999999999 4.3

Bond Coeffs

1 1.4937875 3.5
2 8.962725 3.2
3 5.97515 4.0
4 5.97515 3.3000000000000003
5 5.97515 2.8000000000000003
6 8.962725 3.1
7 8.962725 3.0
8 5.97515 3.2
9 8.962725 3.3000000000000003
10 5.97515 3.4000000000000004
11 5.97515 3.0
12 2.987575 4.0
13 11.9503 3.3000000000000003
14 11.9503 3.1
15 11.9503 2.6500000000000004
16 11.9503 2.7
17 11.9503 2.6

Angle Coeffs

1 2.39006 127
2 83.6521 96
3 2.39006 100
4 2.39006 130
5 11.9503 98
6 2.987575 100
7 2.987575 180
8 5.97515 150
9 5.97515 210
10 5.97515 90

Dihedral Coeffs

1 95.6024 1 -120 0

Improper Coeffs

1 5.97515 0
2 23.9006 0

Atoms

1 1 1 1.0000 1.2549999 -0.027 -48.818
2 1 2 0.0000 0.0943712 0.289966 -51.106102
3 1 3 -1.0000 -1.39851 -0.557291 -53.25
4 1 4 0.0000 1.92284 2.04908 -54.4396
5 1 5 0.0000 2.64032 0.310093 -56.0225
6 1 4 0.0000 1.5335201 5.01558 -54.5755
7 1 3 -1.0000 -1.6257399 6.31263 -56.2343
8 1 4 0.0000 4.29458 6.0390196 -56.1738
9 1 6 0.0000 7.11055 4.52444 -55.566902
10 1 1 1.0000 8.138 2.09885 -56.7763
11 1 4 0.0000 3.8365502 4.88432 -59.53
12 1 7 0.0000 1.47523 6.96104 -60.1181
13 1 6 0.0000 -1.75883 6.48082 -61.1024
14 1 1 1.0000 -4.3204503 6.30774 -60.2644
15 1 7 0.0000 3.37299 9.59766 -59.4632
16 1 6 0.0000 2.1956 11.272699 -56.843
17 1 1 1.0000 0.833705 9.93396 -55.053
18 1 7 0.0000 5.74976 9.03899 -61.7695
19 1 8 0.0000 8.29827 7.53747 -60.5554
20 1 9 0.0000 4.15419 9.54563 -64.4367
21 1 10 0.0000 4.8668103 9.28927 -67.521805
22 1 10 0.0000 4.76188 9.9719 -70.306404
23 1 10 0.0000 6.36098 8.51004 -69.5676
24 1 9 0.0000 3.52004 12.7488 -63.7977
25 1 5 0.0000 1.52807 14.0775 -63.8674
26 1 9 0.0000 6.52991 13.6771 -63.1451
27 1 11 0.0000 6.14341 17.6635 -65.0212
28 1 9 0.0000 7.79642 12.9913 -65.9087
29 1 6 0.0000 9.694799 10.5083 -65.3423
30 1 1 1.0000 10.5534 8.3377 -65.4495
31 1 12 0.0000 6.81919 14.270801 -68.8494
32 1 13 0.0000 9.07741 14.528199 -70.9072
33 1 7 0.0000 3.92956 14.453401 -68.828804
34 1 12 0.0000 0.925128 12.315101 -68.4767
35 1 11 0.0000 -1.55699 16.0861 -69.1544
36 1 12 0.0000 0.16495499 12.045 -71.7232
37 1 13 0.0000 -1.0582199 15.2468 -71.6416
38 1 2 0.0000 -0.503662 8.441561 -71.9112
39 1 14 0.0000 2.30551 7.50668 -72.9395
40 1 15 0.0000 3.7959502 5.65827 -72.6666
41 1 15 0.0000 4.22672 7.82259 -74.2312
42 1 2 0.0000 -4.16296 7.95608 -71.5422
43 1 16 0.0000 -5.02727 8.27162 -73.8071
44 1 2 0.0000 -4.68719 7.27236 -68.408195
45 1 5 0.0000 -3.30127 5.03409 -67.9131
46 1 2 0.0000 -6.93042 6.73979 -65.7042
47 1 3 -1.0000 -5.87419 9.87659 -62.768402
48 1 12 0.0000 -11.0375 3.82424 -64.1569
49 1 6 0.0000 -12.027599 2.2222 -61.5698
50 1 1 1.0000 -11.565 1.81604 -58.749
51 1 12 0.0000 -12.3846 5.58346 -66.6846
52 1 2 0.0000 -9.62665 7.52775 -67.2038
53 1 2 0.0000 -10.5797 10.852799 -65.9749
54 1 6 0.0000 -10.5538 9.49057 -62.916298
55 1 1 1.0000 -9.38323 7.3262696 -60.991703
56 1 2 0.0000 -9.55417 12.739201 -69.8628
57 1 14 0.0000 -10.2423 10.0627 -71.2803
58 1 15 0.0000 -9.46095 8.10158 -72.4331
59 1 15 0.0000 -11.8679 8.37037 -71.673996
60 1 2 0.0000 -6.04146 13.0547 -71.5542
61 1 6 0.0000 -4.53901 12.1640005 -68.7125
62 1 1 1.0000 -4.93559 12.1765995 -66.4415
63 1 2 0.0000 -4.06195 12.6418 -75.729095
64 1 16 0.0000 -3.81956 15.156401 -76.6827
65 1 2 0.0000 -0.981999 10.405001 -76.4682
66 1 11 0.0000 -0.0587942 6.95342 -77.0548
67 1 6 0.0000 1.5098201 6.25906 -79.2435
68 1 2 0.0000 -1.7741599 4.72131 -75.0391
69 1 2 0.0000 -4.34244 4.1685 -76.7119
70 1 2 0.0000 -2.25058 2.95816 -72.2544
71 1 8 0.0000 -0.239347 2.33559 -69.995895
72 1 12 0.0000 -5.91432 2.33171 -74.383995
73 1 14 0.0000 -6.9275703 3.5380797 -71.7878
74 1 15 0.0000 -9.57311 3.82382 -70.9213
75 1 15 0.0000 -7.62399 3.21631 -69.061
76 1 12 0.0000 -7.5896 -1.24624 -73.519905
77 1 2 0.0000 -5.27601 -2.14927 -70.928894
78 1 8 0.0000 -3.88137 -0.634434 -68.5627
79 1 12 0.0000 -6.06714 -5.54898 -70.3593
80 1 10 0.0000 -5.34842 -6.01501 -67.1548
81 1 10 0.0000 -3.7635698 -5.3221397 -65.4318
82 1 10 0.0000 -5.98386 -6.9521 -64.8359
83 1 12 0.0000 -5.42089 -8.50232 -72.556
84 1 2 0.0000 -5.23628 -6.9576697 -75.3727
85 1 7 0.0000 -3.8974402 -4.1700597 -75.5292
86 1 1 1.0000 -2.80796 -0.943007 -75.5914
87 1 2 0.0000 -3.3053498 -7.6188703 -79.067
88 1 6 0.0000 -0.363218 -8.953401 -80.5116
89 1 1 1.0000 0.776659 -9.79515 -82.7362
90 1 12 0.0000 -1.81633 -3.6417499 -79.9329
91 1 16 0.0000 0.500742 -3.7810702 -78.6361
92 1 12 0.0000 -5.2003903 -3.3001199 -81.3116
93 1 2 0.0000 -6.8135 -0.980675 -78.6839
94 1 11 0.0000 -8.86983 -3.61622 -77.8188
95 1 11 0.0000 -8.52044 1.21689 -78.9549
96 1 7 0.0000 -10.3237 3.95252 -76.7677
97 1 6 0.0000 -12.1152 2.4609098 -74.9526
98 1 12 0.0000 -8.39198 6.94499 -77.2766
99 1 2 0.0000 -7.4495697 5.69452 -80.7199
100 1 10 0.0000 -7.49055 7.76232 -82.7375
101 1 10 0.0000 -5.77908 8.3820305 -85.1894
102 1 10 0.0000 -6.88074 10.358 -83.9349
103 1 2 0.0000 -4.37729 3.2671201 -82.0086
104 1 16 0.0000 -5.27529 1.75458 -83.819
105 1 2 0.0000 -2.0787 5.4987698 -82.588394
106 1 14 0.0000 -2.6177 8.16887 -81.2377
107 1 14 0.0000 -4.53042 9.02278 -79.3757
108 1 15 0.0000 -3.55447 10.9571 -81.09239
109 1 2 0.0000 -1.03186 4.37319 -86.3857
110 1 16 0.0000 -2.26612 5.7663603 -88.0423
111 1 4 0.0000 1.65627 3.09288 -85.9415
112 1 3 -1.0000 2.6104097 1.25691 -87.9097
113 1 7 0.0000 2.4716702 2.29792 -83.083496
114 1 12 0.0000 -0.146858 0.48101398 -82.0518
115 1 2 0.0000 -0.311187 1.67211 -79.1474
116 1 12 0.0000 0.044070702 -1.9174399 -84.2164
117 1 6 0.0000 -2.1693702 -0.95639104 -86.404305
118 1 1 1.0000 -1.3989601 -0.478913 -88.9888
119 1 9 0.0000 2.8955297 -3.24902 -83.4373
120 1 2 0.0000 3.9724698 -4.14718 -86.4332
121 1 2 0.0000 5.05443 -4.79529 -81.23
122 1 6 0.0000 8.2913 -4.40299 -80.8915
123 1 1 1.0000 10.6842 -4.9868803 -78.9229
124 1 2 0.0000 4.21294 -7.5462003 -79.934204
125 1 2 0.0000 2.1603 -7.8196597 -76.777405
126 1 8 0.0000 2.55463 -10.8243 -76.3775
127 1 2 0.0000 -0.19993299 -8.18974 -74.081406
128 1 16 0.0000 -1.64822 -10.233801 -75.180405
129 1 2 0.0000 -1.4308 -7.95033 -70.1501
130 1 14 0.0000 -1.32775 -4.79772 -70.2556
131 1 17 0.0000 -0.41077402 -2.38337 -71.399
132 1 10 0.0000 0.312123 -4.78858 -72.757904
133 1 10 0.0000 1.1761 -2.6391 -73.649704
134 1 2 0.0000 -0.0752331 -8.33004 -66.8436
135 1 6 0.0000 2.4653199 -10.934401 -67.620705
136 1 1 1.0000 4.04981 -11.694601 -65.2686
137 1 4 0.0000 2.4776 -6.3632 -66.6117
138 1 3 -1.0000 4.8383503 -7.73583 -63.2464
139 1 4 0.0000 4.97012 -7.5090303 -67.828995
140 1 3 -1.0000 5.7405 -7.8649197 -63.4549
141 1 4 0.0000 4.57837 -6.2436495 -70.7524
142 1 16 0.0000 4.46781 -8.2333 -72.3552
143 1 12 0.0000 4.6230097 -3.1258101 -69.9102
144 1 8 0.0000 3.62833 0.0589165 -69.7762
145 1 9 0.0000 7.74212 -2.9826598 -68.798
146 1 13 0.0000 9.85808 -6.1885796 -66.9993
147 1 9 0.0000 8.95679 -3.32064 -71.6711
148 1 3 -1.0000 11.9635 -3.66799 -74.594894
149 1 9 0.0000 7.5497503 -0.554189 -72.7317
150 1 14 0.0000 4.88854 0.87756 -74.2344
151 1 14 0.0000 3.99562 2.71325 -75.8174
152 1 15 0.0000 2.1448 1.68252 -74.1823
153 1 12 0.0000 9.32859 1.4936199 -71.0608
154 1 8 0.0000 7.09943 3.27346 -69.8674
155 1 12 0.0000 12.133301 0.780375 -71.9945
156 1 3 -1.0000 15.7725 0.28730202 -70.7976
157 1 2 0.0000 12.8888 3.1115003 -73.9513
158 1 2 0.0000 15.4873 4.43197 -74.9041
159 1 7 0.0000 10.0088005 3.44115 -75.388596
160 1 6 0.0000 8.42167 5.64224 -74.251
161 1 12 0.0000 11.0772 3.2698398 -78.3748
162 1 6 0.0000 13.1275 6.07027 -79.0071
163 1 1 1.0000 11.7397 8.081619 -77.4494
164 1 12 0.0000 11.4347 -0.013540099 -78.4872
165 1 6 0.0000 14.5815 -0.4924 -77.902695
166 1 1 1.0000 15.8463 -0.660427 -75.1474
167 1 12 0.0000 8.508261 -0.80024695 -78.011
168 1 14 0.0000 6.70918 -3.12695 -76.7833
169 1 14 0.0000 5.04168 -3.81493 -74.9219
170 1 15 0.0000 6.99119 -5.3213797 -75.7798
171 1 2 0.0000 6.53337 0.661915 -79.8313
172 1 8 0.0000 3.91379 -0.83518994 -79.0403
173 1 7 0.0000 6.57465 -0.043673597 -82.9319
174 1 6 0.0000 8.98701 -0.62841105 -85.0345
175 1 12 0.0000 9.25835 3.62289 -82.596596
176 1 2 0.0000 6.04322 4.8266897 -80.6522
177 1 16 0.0000 7.1635904 6.3421397 -78.920395
178 1 2 0.0000 4.95117 6.71596 -83.3745
179 1 6 0.0000 6.42278 5.1525097 -85.444
180 1 1 1.0000 6.5337505 3.42728 -87.3452
181 1 2 0.0000 2.42824 8.32206 -83.4663
182 1 13 0.0000 2.01844 8.64042 -86.846306
183 1 2 0.0000 1.9380901 10.953701 -80.8235
184 1 8 0.0000 1.4983401 14.1695 -80.870895
185 1 2 0.0000 4.06391 10.9767 -78.425896
186 1 10 0.0000 3.27072 13.5341 -76.4951
187 1 10 0.0000 4.15171 15.735399 -75.5031
188 1 10 0.0000 1.31985 15.0209 -75.9347
189 1 11 0.0000 7.4805098 10.789599 -76.6008
190 1 2 0.0000 9.37959 10.3228 -73.677605
191 1 2 0.0000 11.7942 8.07132 -71.6598
192 1 8 0.0000 12.5502 10.5155 -69.948105
193 1 2 0.0000 12.4352 5.0373297 -68.429
194 1 6 0.0000 14.759901 4.57804 -69.5558
195 1 1 1.0000 17.0666 4.09426 -68.1532
196 1 2 0.0000 15.743199 1.14099 -65.910904
197 1 6 0.0000 18.0287 2.73886 -63.7565
198 1 1 1.0000 17.4848 4.32452 -61.135403
199 1 4 0.0000 14.8182 -1.27121 -63.3643
200 1 6 0.0000 11.7395 -3.52519 -62.146904
201 1 1 1.0000 8.75549 -4.73365 -61.881298
202 1 4 0.0000 12.9817 0.839796 -61.579098
203 1 16 0.0000 12.0807 0.255276 -59.164
204 1 4 0.0000 12.1799 3.07442 -63.8052
205 1 3 -1.0000 14.6714 6.11469 -64.3555
206 1 4 0.0000 10.3811 1.02689 -65.7026
207 1 7 0.0000 12.0691 -1.50915 -67.3278
208 1 1 1.0000 13.470201 -3.55348 -69.7426
209 1 7 0.0000 8.8005295 -0.0597303 -63.1786
210 1 3 -1.0000 6.9383297 -1.2853401 -59.4066
211 1 7 0.0000 7.31308 2.47984 -62.1216
212 1 3 -1.0000 6.09802 -0.52854 -59.815697
213 1 7 0.0000 5.70143 2.90245 -65.1454
214 1 8 0.0000 7.0345697 5.6507998 -65.854004
215 1 7 0.0000 4.19357 0.143913 -64.897095
216 1 8 0.0000 5.28701 -2.83144 -64.8393
217 1 13 0.0000 2.5514297 1.01958 -62.305298
218 1 7 0.0000 0.71973693 3.25561 -63.6277
219 1 14 0.0000 1.7312901 5.31065 -65.5457
220 1 14 0.0000 2.60717 5.90285 -68.1219
221 1 15 0.0000 0.63941 7.54533 -67.0468
222 1 7 0.0000 -0.77163005 0.72487104 -65.72
223 1 8 0.0000 0.687335 -2.00879 -66.967804
224 1 7 0.0000 -1.94903 -0.95224 -63.1937
225 1 6 0.0000 0.691535 -3.3333201 -62.1126
226 1 1 1.0000 3.2442799 -4.18539 -60.545002
227 1 9 0.0000 -3.30251 1.3886701 -62.0343
228 1 6 0.0000 -3.0995398 1.62247 -59.0834
229 1 1 1.0000 -4.17088 2.08458 -56.3338
230 1 7 0.0000 -5.27122 2.04908 -64.0801
231 1 9 0.0000 -7.0917397 -0.71165 -64.1656
232 1 16 0.0000 -8.32829 -0.95893 -66.6514
233 1 9 0.0000 -8.03245 -0.503628 -61.0102
234 1 2 0.0000 -6.4349995 -2.80462 -59.037
235 1 3 -1.0000 -7.4589596 3.0454702 -60.1478
236 1 3 -1.0000 -8.35743 4.72933 -57.437202

Bonds

1 1 1 2
2 1 31 33
3 1 33 34
4 1 34 36
5 1 36 38
6 1 38 42
7 1 42 44
8 1 44 46
9 1 46 48
10 1 48 51
11 1 51 52
12 1 52 53
13 1 53 56
14 1 56 60
15 1 60 63
16 1 63 65
17 1 65 66
18 1 66 68
19 1 68 70
20 1 70 72
21 1 72 76
22 1 76 77
23 1 77 79
24 1 79 83
25 1 83 84
26 1 84 87
27 1 87 90
28 1 90 92
29 1 92 93
30 1 93 95
31 1 95 96
32 1 96 98
33 1 98 99
34 1 99 103
35 1 103 105
36 1 105 109
37 1 121 124
38 1 124 125
39 1 125 127
40 1 127 129
41 1 129 134
42 1 153 155
43 1 155 157
44 1 171 173
45 1 173 175
46 1 175 176
47 1 176 178
48 1 178 181
49 1 181 183
50 1 183 185
51 1 185 189
52 1 189 190
53 1 190 191
54 1 191 193
55 1 193 196
56 2 2 3
57 3 6 7
58 4 8 9
59 5 9 10
60 4 12 13
61 5 13 14
62 4 15 16
63 5 16 17
64 6 20 21
65 3 26 27
66 4 28 29
67 5 29 30
68 6 31 32
69 3 34 35
70 6 36 37
71 2 38 39
72 3 46 47
73 4 48 49
74 5 49 50
75 4 53 54
76 5 54 55
77 2 56 57
78 4 60 61
79 5 61 62
80 7 66 67
81 8 68 69
82 9 70 71
83 2 72 73
84 9 77 78
85 6 79 80
86 4 84 85
87 10 85 86
88 4 87 88
89 5 88 89
90 3 93 94
91 7 96 97
92 6 99 100
93 8 105 106
94 2 111 112
95 8 114 115
96 4 116 117
97 5 117 118
98 8 119 120
99 4 121 122
100 5 122 123
101 11 129 130
102 4 134 135
103 5 135 136
104 3 137 138
105 3 139 140
106 9 143 144
107 12 145 146
108 3 147 148
109 8 149 150
110 9 153 154
111 3 155 156
112 8 157 158
113 7 159 160
114 4 161 162
115 5 162 163
116 4 164 165
117 5 165 166
118 8 167 168
119 7 173 174
120 4 178 179
121 5 179 180
122 12 181 182
123 6 185 186
124 4 193 194
125 5 194 195
126 4 196 197
127 5 197 198
128 4 199 200
129 5 200 201
130 3 204 205
131 4 206 207
132 10 207 208
133 3 209 210
134 2 211 212
135 9 213 214
136 8 218 219
137 9 222 223
138 4 224 225
139 5 225 226
140 4 227 228
141 5 228 229
142 8 233 234
143 3 235 236
144 13 2 4
145 14 4 6
146 14 6 8
147 14 8 11
148 14 11 12
149 14 12 15
150 14 15 18
151 14 18 20
152 14 20 24
153 14 24 26
154 14 26 28
155 13 28 31
156 13 109 111
157 14 111 113
158 14 113 114
159 14 114 116
160 14 116 119
161 13 119 121
162 13 134 137
163 14 137 139
164 14 139 141
165 14 141 143
166 14 143 145
167 14 145 147
168 14 147 149
169 13 149 153
170 13 157 159
171 14 159 161
172 14 161 164
173 14 164 167
174 13 167 171
175 13 196 199
176 14 199 202
177 14 202 204
178 14 204 206
179 14 206 209
180 14 209 211
181 14 211 213
182 14 213 215
183 14 215 217
184 14 217 218
185 14 218 222
186 14 222 224
187 14 224 227
188 14 227 230
189 14 230 231
190 14 231 233
191 13 233 235
192 15 4 5
193 14 18 19
194 16 21 22
195 16 21 23
196 16 22 23
197 15 24 25
198 16 39 40
199 16 39 41
200 16 40 41
201 17 42 43
202 15 44 45
203 16 57 58
204 16 57 59
205 16 58 59
206 17 63 64
207 16 73 74
208 16 73 75
209 16 74 75
210 16 80 81
211 16 80 82
212 16 81 82
213 17 90 91
214 16 100 101
215 16 100 102
216 16 101 102
217 17 103 104
218 16 106 107
219 16 106 108
220 16 107 108
221 17 109 110
222 14 125 126
223 17 127 128
224 16 130 131
225 16 130 132
226 16 131 132
227 16 131 133
228 16 132 133
229 17 141 142
230 16 150 151
231 16 150 152
232 16 151 152
233 16 168 169
234 16 168 170
235 16 169 170
236 14 171 172
237 17 176 177
238 14 183 184
239 16 186 187
240 16 186 188
241 16 187 188
242 14 191 192
243 17 202 203
244 14 215 216
245 16 219 220
246 16 219 221
247 16 220 221
248 17 231 232

Angles

1 1 1 2 4
2 1 2 4 6
3 2 4 6 8
4 2 6 8 11
5 2 8 11 12
6 2 11 12 15
7 2 12 15 18
8 2 15 18 20
9 2 18 20 24
10 2 20 24 26
11 2 24 26 28
12 3 26 28 31
13 3 28 31 33
14 3 31 33 34
15 3 33 34 36
16 3 34 36 38
17 3 36 38 42
18 1 38 42 44
19 1 42 44 46
20 3 44 46 48
21 3 46 48 51
22 3 48 51 52
23 3 51 52 53
24 1 52 53 56
25 1 53 56 60
26 1 56 60 63
27 1 60 63 65
28 4 63 65 66
29 1 65 66 68
30 1 66 68 70
31 3 68 70 72
32 3 70 72 76
33 3 72 76 77
34 3 76 77 79
35 3 77 79 83
36 3 79 83 84
37 3 83 84 87
38 3 84 87 90
39 3 87 90 92
40 3 90 92 93
41 3 92 93 95
42 1 93 95 96
43 3 95 96 98
44 3 96 98 99
45 3 98 99 103
46 1 99 103 105
47 1 103 105 109
48 1 105 109 111
49 1 109 111 113
50 2 111 113 114
51 2 113 114 116
52 2 114 116 119
53 1 116 119 121
54 1 119 121 124
55 1 121 124 125
56 1 124 125 127
57 1 125 127 129
58 1 127 129 134
59 1 129 134 137
60 4 134 137 139
61 2 137 139 141
62 2 139 141 143
63 2 141 143 145
64 2 143 145 147
65 2 145 147 149
66 3 147 149 153
67 3 149 153 155
68 3 153 155 157
69 3 155 157 159
70 5 157 159 161
71 5 159 161 164
72 2 161 164 167
73 4 164 167 171
74 4 167 171 173
75 3 171 173 175
76 3 173 175 176
77 3 175 176 178
78 1 176 178 181
79 1 178 181 183
80 1 181 183 185
81 1 183 185 189
82 1 185 189 190
83 1 189 190 191
84 1 190 191 193
85 1 191 193 196
86 1 193 196 199
87 4 196 199 202
88 2 199 202 204
89 2 202 204 206
90 2 204 206 209
91 2 206 209 211
92 2 209 211 213
93 2 211 213 215
94 2 213 215 217
95 2 215 217 218
96 2 217 218 222
97 2 218 222 224
98 2 222 224 227
99 2 224 227 230
100 2 227 230 231
101 2 230 231 233
102 1 231 233 235
103 6 1 2 3
104 6 2 4 5
105 6 4 6 7
106 6 6 8 9
107 6 11 12 13
108 6 12 15 16
109 6 15 18 19
110 6 18 20 21
111 6 20 24 25
112 6 24 26 27
113 6 26 28 29
114 6 28 31 32
115 6 33 34 35
116 6 34 36 37
117 6 36 38 39
118 6 38 42 43
119 6 42 44 45
120 6 44 46 47
121 6 46 48 49
122 6 52 53 54
123 6 53 56 57
124 6 56 60 61
125 6 60 63 64
126 6 65 66 67
127 6 66 68 69
128 6 68 70 71
129 6 70 72 73
130 6 76 77 78
131 6 77 79 80
132 6 83 84 85
133 6 84 87 88
134 6 87 90 91
135 6 92 93 94
136 6 95 96 97
137 6 98 99 100
138 6 99 103 104
139 6 103 105 106
140 6 105 109 110
141 6 109 111 112
142 6 113 114 115
143 6 114 116 117
144 6 116 119 120
145 6 119 121 122
146 6 124 125 126
147 6 125 127 128
148 6 127 129 130
149 6 129 134 135
150 6 134 137 138
151 6 137 139 140
152 6 139 141 142
153 6 141 143 144
154 6 143 145 146
155 6 145 147 148
156 6 147 149 150
157 6 149 153 154
158 6 153 155 156
159 6 155 157 158
160 6 157 159 160
161 6 159 161 162
162 6 161 164 165
163 6 164 167 168
164 6 167 171 172
165 6 171 173 174
166 6 175 176 177
167 6 176 178 179
168 6 178 181 182
169 6 181 183 184
170 6 183 185 186
171 6 190 191 192
172 6 191 193 194
173 6 193 196 197
174 6 196 199 200
175 6 199 202 203
176 6 202 204 205
177 6 204 206 207
178 6 206 209 210
179 6 209 211 212
180 6 211 213 214
181 6 213 215 216
182 6 217 218 219
183 6 218 222 223
184 6 222 224 225
185 6 224 227 228
186 6 230 231 232
187 6 231 233 234
188 6 233 235 236
189 7 8 9 10
190 7 12 13 14
191 7 15 16 17
192 8 20 21 22
193 8 20 21 23
194 7 28 29 30
195 8 38 39 40
196 8 38 39 41
197 7 48 49 50
198 7 53 54 55
199 8 56 57 58
200 8 56 57 59
201 7 60 61 62
202 8 72 73 74
203 8 72 73 75
204 8 79 80 81
205 8 79 80 82
206 7 84 85 86
207 7 87 88 89
208 8 99 100 101
209 8 99 100 102
210 8 105 106 107
211 8 105 106 108
212 7 116 117 118
213 7 121 122 123
214 9 129 130 131
215 10 129 130 132
216 7 134 135 136
217 8 149 150 151
218 8 149 150 152
219 7 161 162 163
220 7 164 165 166
221 8 167 168 169
222 8 167 168 170
223 7 178 179 180
224 8 185 186 187
225 8 185 186 188
226 7 193 194 195
227 7 196 197 198
228 7 199 200 201
229 7 206 207 208
230 8 218 219 220
231 8 218 219 221
232 7 224 225 226
233 7 227 228 229

Dihedrals

1 1 4 6 8 11
2 1 6 8 11 12
3 1 8 11 12 15
4 1 11 12 15 18
5 1 12 15 18 20
6 1 15 18 20 24
7 1 18 20 24 26
8 1 20 24 26 28
9 1 111 113 114 116
10 1 113 114 116 119
11 1 137 139 141 143
12 1 139 141 143 145
13 1 141 143 145 147
14 1 143 145 147 149
15 1 159 161 164 167
16 1 199 202 204 206
17 1 202 204 206 209
18 1 204 206 209 211
19 1 206 209 211 213
20 1 209 211 213 215
21 1 211 213 215 217
22 1 213 215 217 218
23 1 215 217 218 222
24 1 217 218 222 224
25 1 218 222 224 227
26 1 222 224 227 230
27 1 224 227 230 231
28 1 227 230 231 233

Impropers

1 1 20 22 23 21
2 1 38 40 41 39
3 1 56 58 59 57
4 1 72 74 75 73
5 1 79 81 82 80
6 1 99 101 102 100
7 1 105 107 108 106
8 1 129 131 132 130
9 2 130 131 133 132
10 1 149 151 152 150
11 1 167 169 170 168
12 1 185 187 188 186
13 1 218 220 221 219

