comment

236 atoms
248 bonds
233 angles
28 dihedrals
13 impropers

17 atom types
17 bond types
10 angle types
1 dihedral types
2 improper types

-40.5 40.5 xlo xhi
-40.5 40.5 ylo yhi
-190.0 190.0 zlo zhi

Masses

1 72.0
2 72.0
3 72.0
4 72.0
5 72.0
6 72.0
7 72.0
8 72.0
9 72.0
10 45.0
11 72.0
12 72.0
13 72.0
14 45.0
15 45.0
16 72.0
17 45.0

PairIJ Coeffs

1 1 1.19503 4.699999999999999
1 2 1.3384336 4.699999999999999
1 3 1.3384336 4.699999999999999
1 4 0.956024 4.699999999999999
1 5 0.478012 4.699999999999999
1 6 0.5497137999999999 4.699999999999999
1 7 0.836521 4.699999999999999
1 8 0.478012 4.699999999999999
1 9 1.19503 4.699999999999999
1 10 0.7409186 4.699999999999999
1 11 1.3384336 4.699999999999999
1 12 1.19503 4.699999999999999
1 13 0.7409186 4.699999999999999
1 14 0.6453162 4.699999999999999
1 15 1.19503 4.699999999999999
1 16 1.19503 4.699999999999999
1 17 0.956024 4.699999999999999
2 2 1.3384336 4.699999999999999
2 3 1.3384336 4.699999999999999
2 4 1.19503 4.699999999999999
2 5 0.5497137999999999 4.699999999999999
2 6 0.6453162 4.699999999999999
2 7 0.836521 4.699999999999999
2 8 0.478012 4.699999999999999
2 9 1.19503 4.699999999999999
2 10 0.7409186 4.699999999999999
2 11 1.3384336 4.699999999999999
2 12 1.19503 4.699999999999999
2 13 0.7409186 4.699999999999999
2 14 0.6453162 4.699999999999999
2 15 1.3384336 4.699999999999999
2 16 1.3384336 4.699999999999999
2 17 1.19503 4.699999999999999
3 3 1.19503 4.699999999999999
3 4 1.19503 4.699999999999999
3 5 0.478012 4.699999999999999
3 6 0.5497137999999999 4.699999999999999
3 7 0.836521 4.699999999999999
3 8 0.478012 4.699999999999999
3 9 0.956024 4.699999999999999
3 10 0.7409186 4.699999999999999
3 11 1.3384336 4.699999999999999
3 12 1.19503 4.699999999999999
3 13 0.7409186 4.699999999999999
3 14 0.6453162 4.699999999999999
3 15 1.19503 4.699999999999999
3 16 1.19503 4.699999999999999
3 17 1.19503 4.699999999999999
4 4 0.956024 4.699999999999999
4 5 0.6453162 4.699999999999999
4 6 0.6453162 4.699999999999999
4 7 0.836521 4.699999999999999
4 8 0.6453162 4.699999999999999
4 9 1.075527 4.699999999999999
4 10 0.836521 4.699999999999999
4 11 0.956024 4.699999999999999
4 12 1.075527 4.699999999999999
4 13 0.836521 4.699999999999999
4 14 0.7409186 4.699999999999999
4 15 1.075527 4.699999999999999
4 16 1.075527 4.699999999999999
4 17 0.956024 4.699999999999999
5 5 0.836521 4.699999999999999
5 6 0.836521 4.699999999999999
5 7 0.7409186 4.699999999999999
5 8 0.836521 4.699999999999999
5 9 0.6453162 4.699999999999999
5 10 0.7409186 4.699999999999999
5 11 0.5497137999999999 4.699999999999999
5 12 0.6453162 4.699999999999999
5 13 0.7409186 4.699999999999999
5 14 0.7409186 4.699999999999999
5 15 0.7409186 4.699999999999999
5 16 0.7409186 4.699999999999999
5 17 0.6453162 4.699999999999999
6 6 0.836521 4.699999999999999
6 7 0.836521 4.699999999999999
6 8 0.836521 4.699999999999999
6 9 0.6453162 4.699999999999999
6 10 0.836521 4.699999999999999
6 11 0.6453162 4.699999999999999
6 12 0.6453162 4.699999999999999
6 13 0.836521 4.699999999999999
6 14 0.836521 4.699999999999999
6 15 0.836521 4.699999999999999
6 16 0.836521 4.699999999999999
6 17 0.6453162 4.699999999999999
7 7 0.836521 4.699999999999999
7 8 0.6453162 4.699999999999999
7 9 0.836521 4.699999999999999
7 10 0.836521 4.699999999999999
7 11 0.836521 4.699999999999999
7 12 0.836521 4.699999999999999
7 13 0.836521 4.699999999999999
7 14 0.836521 4.699999999999999
7 15 0.956024 4.699999999999999
7 16 0.956024 4.699999999999999
7 17 0.836521 4.699999999999999
8 8 0.836521 4.699999999999999
8 9 0.6453162 4.699999999999999
8 10 0.7409186 4.699999999999999
8 11 0.478012 4.699999999999999
8 12 0.6453162 4.699999999999999
8 13 0.7409186 4.699999999999999
8 14 0.7409186 4.699999999999999
8 15 0.6453162 4.699999999999999
8 16 0.6453162 4.699999999999999
8 17 0.6453162 4.699999999999999
9 9 0.956024 4.699999999999999
9 10 0.836521 4.699999999999999
9 11 0.956024 4.699999999999999
9 12 1.075527 4.699999999999999
9 13 0.836521 4.699999999999999
9 14 0.7409186 4.699999999999999
9 15 1.075527 4.699999999999999
9 16 1.075527 4.699999999999999
9 17 1.075527 4.699999999999999
10 10 0.62739075 4.3
10 11 0.7409186 4.699999999999999
10 12 0.836521 4.699999999999999
10 13 0.836521 4.699999999999999
10 14 0.62739075 4.3
10 15 0.62739075 4.3
10 16 0.836521 4.699999999999999
10 17 0.62739075 4.3
11 11 1.19503 4.699999999999999
11 12 0.956024 4.699999999999999
11 13 0.7409186 4.699999999999999
11 14 0.6453162 4.699999999999999
11 15 1.075527 4.699999999999999
11 16 1.075527 4.699999999999999
11 17 0.956024 4.699999999999999
12 12 1.075527 4.699999999999999
12 13 0.836521 4.699999999999999
12 14 0.7409186 4.699999999999999
12 15 1.075527 4.699999999999999
12 16 1.075527 4.699999999999999
12 17 1.075527 4.699999999999999
13 13 0.836521 4.699999999999999
13 14 0.836521 4.699999999999999
13 15 0.836521 4.699999999999999
13 16 0.836521 4.699999999999999
13 17 0.836521 4.699999999999999
14 14 0.62739075 4.3
14 15 0.62739075 4.3
14 16 0.836521 4.699999999999999
14 17 0.5556889500000001 4.3
15 15 0.80664525 4.3
15 16 1.075527 4.699999999999999
15 17 0.80664525 4.3
16 16 1.075527 4.699999999999999
16 17 1.075527 4.699999999999999
17 17 0.7170179999999999 4.3

Bond Coeffs

1 1.4937875 3.5
2 8.962725 3.2
3 5.97515 4.0
4 5.97515 3.3000000000000003
5 5.97515 2.8000000000000003
6 8.962725 3.1
7 8.962725 3.0
8 5.97515 3.2
9 8.962725 3.3000000000000003
10 5.97515 3.4000000000000004
11 5.97515 3.0
12 2.987575 4.0
13 11.9503 3.3000000000000003
14 11.9503 3.1
15 11.9503 2.6500000000000004
16 11.9503 2.7
17 11.9503 2.6

Angle Coeffs

1 2.39006 127
2 83.6521 96
3 2.39006 100
4 2.39006 130
5 11.9503 98
6 2.987575 100
7 2.987575 180
8 5.97515 150
9 5.97515 210
10 5.97515 90

Dihedral Coeffs

1 95.6024 1 -120 0

Improper Coeffs

1 5.97515 0
2 23.9006 0

Atoms

1 1 1 1.0000 1.2549999 -0.027 -48.818
2 1 2 0.0000 0.16331899 0.144575 -51.304897
3 1 3 -1.0000 -1.56897 -0.77319 -53.5882
4 1 4 0.0000 1.5742201 2.2668 -54.5334
5 1 5 0.0000 2.93581 1.18436 -56.6644
6 1 4 0.0000 1.15048 5.46999 -55.1344
7 1 3 -1.0000 -2.37937 6.3833804 -56.3492
8 1 4 0.0000 3.9172199 6.11846 -56.6552
9 1 6 0.0000 6.76863 4.29019 -56.779198
10 1 1 1.0000 7.5787997 1.8899701 -56.507603
11 1 4 0.0000 3.31866 4.94783 -59.895203
12 1 7 0.0000 1.28572 7.18573 -60.6949
13 1 6 0.0000 -1.73936 6.28654 -61.7743
14 1 1 1.0000 -4.4042797 6.49335 -60.5019
15 1 7 0.0000 3.5368202 9.76363 -59.827698
16 1 6 0.0000 2.1959 11.623699 -57.7113
17 1 1 1.0000 -0.1339 10.2639 -56.1338
18 1 7 0.0000 5.99881 9.15084 -61.8749
19 1 8 0.0000 8.23016 7.1084204 -60.7906
20 1 9 0.0000 4.45214 10.0254 -64.6988
21 1 10 0.0000 5.3777 10.0212 -67.7826
22 1 10 0.0000 5.6834 9.18192 -70.4143
23 1 10 0.0000 7.46436 8.97446 -69.1696
24 1 9 0.0000 3.8413901 12.9672 -64.208694
25 1 5 0.0000 1.28948 13.762701 -63.5862
26 1 9 0.0000 6.61959 14.001699 -63.3604
27 1 11 0.0000 5.88975 17.5482 -65.0023
28 1 9 0.0000 8.23939 13.288899 -66.2171
29 1 6 0.0000 9.83854 10.3936 -65.4141
30 1 1 1.0000 11.4779 8.66017 -64.5546
31 1 12 0.0000 7.0515103 15.0646 -68.419
32 1 13 0.0000 8.98439 14.307899 -70.890495
33 1 7 0.0000 4.3076 14.4637 -69.5931
34 1 12 0.0000 1.35998 12.6447 -68.4891
35 1 11 0.0000 -1.0298 16.308 -68.071
36 1 12 0.0000 -0.0875476 12.0713 -71.6664
37 1 13 0.0000 -1.33586 14.857901 -71.5622
38 1 2 0.0000 -1.0764999 8.71109 -71.2074
39 1 14 0.0000 1.6851699 7.4166102 -72.6221
40 1 15 0.0000 3.5878801 5.693 -72.3466
41 1 15 0.0000 3.84133 7.5498004 -74.369896
42 1 2 0.0000 -4.24403 8.0583105 -71.8094
43 1 16 0.0000 -5.0767303 7.8800497 -74.2284
44 1 2 0.0000 -5.71609 7.33657 -68.3422
45 1 5 0.0000 -3.56928 5.76626 -67.7274
46 1 2 0.0000 -8.32398 6.3621197 -65.5656
47 1 3 -1.0000 -5.98141 9.15181 -63.8446
48 1 12 0.0000 -10.9935 3.5882401 -64.7967
49 1 6 0.0000 -12.347899 2.95077 -61.6301
50 1 1 1.0000 -11.5714 1.60517 -59.085697
51 1 12 0.0000 -13.6754 5.5088596 -67.2791
52 1 2 0.0000 -10.847799 8.03041 -66.932
53 1 2 0.0000 -10.339201 10.823999 -66.1902
54 1 6 0.0000 -10.3907 10.3034 -63.035797
55 1 1 1.0000 -9.76752 7.85052 -61.1285
56 1 2 0.0000 -9.25581 11.9872 -70.0847
57 1 14 0.0000 -10.251101 9.72505 -71.8041
58 1 15 0.0000 -9.49855 7.0473 -72.191605
59 1 15 0.0000 -12.1751 7.79944 -71.912094
60 1 2 0.0000 -5.72754 13.538899 -71.7781
61 1 6 0.0000 -4.53229 12.6229 -68.8638
62 1 1 1.0000 -3.75051 12.0012 -66.488
63 1 2 0.0000 -3.5243897 12.8848 -75.2282
64 1 16 0.0000 -3.95755 14.5912 -76.7939
65 1 2 0.0000 -0.540061 10.6804 -76.3207
66 1 11 0.0000 -0.44680598 7.6346498 -77.2458
67 1 6 0.0000 1.77316 6.3452296 -78.782
68 1 2 0.0000 -1.57039 4.64718 -75.7229
69 1 2 0.0000 -4.15529 3.77717 -77.2606
70 1 2 0.0000 -2.4389598 1.9129901 -72.7725
71 1 8 0.0000 -0.446582 3.1774602 -70.5189
72 1 12 0.0000 -5.99909 2.30509 -74.0641
73 1 14 0.0000 -7.4928403 3.24849 -71.3593
74 1 15 0.0000 -9.526871 2.45621 -69.8235
75 1 15 0.0000 -7.8659496 2.92786 -68.744995
76 1 12 0.0000 -7.87488 -1.44953 -72.761696
77 1 2 0.0000 -5.60929 -2.30396 -70.5722
78 1 8 0.0000 -4.19353 -0.281395 -68.7674
79 1 12 0.0000 -5.7484903 -5.43972 -70.2697
80 1 10 0.0000 -4.62363 -6.1313 -67.5272
81 1 10 0.0000 -3.3473501 -5.58887 -65.2624
82 1 10 0.0000 -4.5226803 -7.9929695 -65.731705
83 1 12 0.0000 -6.10746 -7.89675 -72.1487
84 1 2 0.0000 -5.69462 -6.6813397 -75.7772
85 1 7 0.0000 -3.93812 -4.5105 -74.9445
86 1 1 1.0000 -3.99495 -1.4963601 -76.0752
87 1 2 0.0000 -3.77471 -7.67832 -79.2421
88 1 6 0.0000 -1.1002101 -9.00142 -80.081795
89 1 1 1.0000 0.25800002 -11.255199 -79.7445
90 1 12 0.0000 -1.9895301 -4.29867 -79.8733
91 1 16 0.0000 0.48336402 -3.79611 -79.0008
92 1 12 0.0000 -4.50363 -3.18776 -82.33
93 1 2 0.0000 -6.71564 -1.73904 -80.0076
94 1 11 0.0000 -8.80116 -3.0482502 -77.1517
95 1 11 0.0000 -8.4029 1.44603 -79.6572
96 1 7 0.0000 -10.1308 4.03828 -77.3422
97 1 6 0.0000 -11.0306 2.7824802 -74.5524
98 1 12 0.0000 -8.30812 6.68693 -77.65
99 1 2 0.0000 -7.791 5.58871 -81.2399
100 1 10 0.0000 -7.63956 8.05186 -83.0892
101 1 10 0.0000 -5.8303795 8.93688 -84.7847
102 1 10 0.0000 -7.31077 10.4143 -83.2206
103 1 2 0.0000 -4.41652 3.62291 -82.340004
104 1 16 0.0000 -4.88446 1.7676901 -84.310196
105 1 2 0.0000 -1.46276 5.62396 -81.966896
106 1 14 0.0000 -3.1254199 8.26299 -80.9224
107 1 14 0.0000 -4.93634 9.8801 -79.517
108 1 15 0.0000 -3.16986 10.820399 -81.3367
109 1 2 0.0000 -0.089504 5.7165003 -85.4422
110 1 16 0.0000 -1.9397401 5.82119 -86.925804
111 1 4 0.0000 1.79987 2.88622 -85.4461
112 1 3 -1.0000 2.90761 1.37988 -88.066795
113 1 7 0.0000 2.54895 2.1497898 -82.496994
114 1 12 0.0000 -0.139286 0.26898 -81.8943
115 1 2 0.0000 -0.724545 0.77417004 -78.7782
116 1 12 0.0000 0.3118 -1.7544 -84.1399
117 1 6 0.0000 -1.5504199 -0.98647296 -86.2719
118 1 1 1.0000 -1.2757001 0.270941 -88.4595
119 1 9 0.0000 3.3507202 -2.93563 -83.660095
120 1 2 0.0000 3.80864 -3.49167 -87.0405
121 1 2 0.0000 5.11726 -4.87954 -81.175095
122 1 6 0.0000 8.98904 -4.6799297 -81.0371
123 1 1 1.0000 11.2716 -4.8602 -79.0516
124 1 2 0.0000 3.795 -7.1749997 -80.3779
125 1 2 0.0000 2.3373 -7.93093 -76.822296
126 1 8 0.0000 3.91621 -10.5709 -76.6376
127 1 2 0.0000 -0.310823 -7.76847 -74.7603
128 1 16 0.0000 -1.7103801 -9.82902 -75.0598
129 1 2 0.0000 -0.822549 -8.2424 -70.1443
130 1 14 0.0000 -0.42486 -5.37416 -70.5647
131 1 17 0.0000 -0.85763 -2.7098398 -71.887596
132 1 10 0.0000 0.534679 -4.53362 -73.0868
133 1 10 0.0000 0.44532502 -2.27828 -74.3461
134 1 2 0.0000 0.457706 -9.15174 -66.5849
135 1 6 0.0000 2.35816 -11.3668 -65.9876
136 1 1 1.0000 4.45252 -11.936899 -64.4072
137 1 4 0.0000 2.31226 -6.55623 -66.0643
138 1 3 -1.0000 5.7938404 -7.75253 -62.7385
139 1 4 0.0000 5.1338296 -7.5173097 -67.4881
140 1 3 -1.0000 5.76168 -7.81972 -63.1488
141 1 4 0.0000 4.6296997 -6.2984 -70.4983
142 1 16 0.0000 3.82192 -8.45016 -72.140396
143 1 12 0.0000 4.4949203 -3.13944 -69.6593
144 1 8 0.0000 3.3389401 -0.208363 -69.9013
145 1 9 0.0000 7.39316 -2.9133298 -68.914
146 1 13 0.0000 9.30415 -5.77168 -66.8946
147 1 9 0.0000 8.65937 -3.42041 -71.9589
148 1 3 -1.0000 12.0012 -3.7821798 -74.7151
149 1 9 0.0000 7.73093 -0.351962 -73.2287
150 1 14 0.0000 5.36711 1.00828 -74.6243
151 1 14 0.0000 4.09038 2.91592 -76.2426
152 1 15 0.0000 2.6032999 1.80635 -74.7654
153 1 12 0.0000 9.2363205 1.7344899 -70.9952
154 1 8 0.0000 6.56383 3.13932 -69.7032
155 1 12 0.0000 12.4957 1.2356399 -72.514404
156 1 3 -1.0000 15.812401 0.39930102 -70.8207
157 1 2 0.0000 12.835899 4.03685 -73.8813
158 1 2 0.0000 15.2098 5.74753 -74.591995
159 1 7 0.0000 9.97622 3.72576 -75.6729
160 1 6 0.0000 8.15494 5.18019 -74.0551
161 1 12 0.0000 11.2274 3.3765502 -78.787094
162 1 6 0.0000 13.3529 5.7585697 -79.0377
163 1 1 1.0000 12.4611 8.267449 -78.2567
164 1 12 0.0000 11.8594 -0.0151865 -78.2613
165 1 6 0.0000 14.8438 0.439941 -77.5006
166 1 1 1.0000 16.015299 -1.495 -75.3585
167 1 12 0.0000 8.72278 -0.84603196 -77.847
168 1 14 0.0000 6.6539803 -3.2989001 -76.8789
169 1 14 0.0000 4.40721 -3.5594 -75.0042
170 1 15 0.0000 6.32225 -5.56713 -75.395096
171 1 2 0.0000 6.38443 0.940276 -79.5464
172 1 8 0.0000 4.04175 -0.93796796 -79.310394
173 1 7 0.0000 7.46173 0.304084 -82.5019
174 1 6 0.0000 7.4888096 -1.4222699 -84.6214
175 1 12 0.0000 8.78113 3.92409 -82.7354
176 1 2 0.0000 6.3968 5.07824 -81.070206
177 1 16 0.0000 7.0738897 6.0618105 -78.6375
178 1 2 0.0000 4.29959 6.7188 -83.3765
179 1 6 0.0000 6.0679197 5.02289 -86.0962
180 1 1 1.0000 7.03577 2.88869 -87.247
181 1 2 0.0000 3.99053 9.84495 -83.75459
182 1 13 0.0000 1.6020399 10.3045 -87.5301
183 1 2 0.0000 2.5688 10.8745 -80.73129
184 1 8 0.0000 1.8214899 13.8351 -81.005295
185 1 2 0.0000 4.60339 10.9236 -77.4974
186 1 10 0.0000 3.4938698 13.3757 -75.6815
187 1 10 0.0000 4.19169 15.2711 -74.4999
188 1 10 0.0000 1.69594 15.4023 -75.8405
189 1 11 0.0000 8.090321 10.7416 -75.8723
190 1 2 0.0000 10.1432 9.84001 -73.4924
191 1 2 0.0000 11.9583 9.18206 -70.890594
192 1 8 0.0000 13.4056 10.8805 -68.888306
193 1 2 0.0000 11.693601 5.27255 -68.1057
194 1 6 0.0000 14.6095 5.18266 -69.3999
195 1 1 1.0000 17.0728 5.03535 -68.819496
196 1 2 0.0000 15.2238 1.32662 -65.7769
197 1 6 0.0000 18.0031 1.9641501 -63.354
198 1 1 1.0000 16.8992 3.40947 -61.0387
199 1 4 0.0000 13.8203 -1.24379 -63.895897
200 1 6 0.0000 11.789101 -3.8484402 -62.5807
201 1 1 1.0000 9.22328 -4.65217 -61.7091
202 1 4 0.0000 12.530499 0.76844996 -61.6175
203 1 16 0.0000 11.5604 -0.602931 -59.4931
204 1 4 0.0000 12.0595 3.06776 -63.7677
205 1 3 -1.0000 15.2695 6.0763197 -64.3792
206 1 4 0.0000 10.3346 1.00938 -65.883
207 1 7 0.0000 11.7752 -1.08997 -68.1446
208 1 1 1.0000 12.948999 -3.0773802 -70.0398
209 1 7 0.0000 8.74334 -0.32003102 -63.6095
210 1 3 -1.0000 6.70432 -1.49355 -59.6467
211 1 7 0.0000 7.0586996 2.1150498 -62.368896
212 1 3 -1.0000 6.5577 -0.887456 -59.959103
213 1 7 0.0000 5.65302 2.53156 -65.231
214 1 8 0.0000 7.3559303 5.69617 -65.5399
215 1 7 0.0000 4.3366103 -0.45846903 -65.0524
216 1 8 0.0000 5.5028 -3.09369 -64.7127
217 1 13 0.0000 2.59164 0.608671 -62.229
218 1 7 0.0000 0.87644005 2.66739 -63.7862
219 1 14 0.0000 1.65471 5.32963 -65.5605
220 1 14 0.0000 2.5323799 6.29663 -67.8867
221 1 15 0.0000 0.62556696 7.4341702 -66.5636
222 1 7 0.0000 -0.738332 0.537028 -65.6747
223 1 8 0.0000 -0.167913 -2.23886 -67.2353
224 1 7 0.0000 -1.9837201 -1.08491 -63.1568
225 1 6 0.0000 0.542574 -3.4913201 -62.126297
226 1 1 1.0000 3.3253698 -4.49643 -60.878403
227 1 9 0.0000 -3.08568 1.585 -61.7905
228 1 6 0.0000 -2.54112 1.4265599 -58.3551
229 1 1 1.0000 -4.33199 2.18424 -56.3444
230 1 7 0.0000 -5.0104 2.61924 -64.5027
231 1 9 0.0000 -6.53636 0.00329511 -64.5812
232 1 16 0.0000 -8.71847 -1.00293 -66.0864
233 1 9 0.0000 -7.39746 0.208159 -61.6408
234 1 2 0.0000 -7.50835 -1.26876 -59.1241
235 1 3 -1.0000 -7.62113 3.33252 -60.9815
236 1 3 -1.0000 -8.3089695 4.69608 -58.3037

Bonds

1 1 1 2
2 1 31 33
3 1 33 34
4 1 34 36
5 1 36 38
6 1 38 42
7 1 42 44
8 1 44 46
9 1 46 48
10 1 48 51
11 1 51 52
12 1 52 53
13 1 53 56
14 1 56 60
15 1 60 63
16 1 63 65
17 1 65 66
18 1 66 68
19 1 68 70
20 1 70 72
21 1 72 76
22 1 76 77
23 1 77 79
24 1 79 83
25 1 83 84
26 1 84 87
27 1 87 90
28 1 90 92
29 1 92 93
30 1 93 95
31 1 95 96
32 1 96 98
33 1 98 99
34 1 99 103
35 1 103 105
36 1 105 109
37 1 121 124
38 1 124 125
39 1 125 127
40 1 127 129
41 1 129 134
42 1 153 155
43 1 155 157
44 1 171 173
45 1 173 175
46 1 175 176
47 1 176 178
48 1 178 181
49 1 181 183
50 1 183 185
51 1 185 189
52 1 189 190
53 1 190 191
54 1 191 193
55 1 193 196
56 2 2 3
57 3 6 7
58 4 8 9
59 5 9 10
60 4 12 13
61 5 13 14
62 4 15 16
63 5 16 17
64 6 20 21
65 3 26 27
66 4 28 29
67 5 29 30
68 6 31 32
69 3 34 35
70 6 36 37
71 2 38 39
72 3 46 47
73 4 48 49
74 5 49 50
75 4 53 54
76 5 54 55
77 2 56 57
78 4 60 61
79 5 61 62
80 7 66 67
81 8 68 69
82 9 70 71
83 2 72 73
84 9 77 78
85 6 79 80
86 4 84 85
87 10 85 86
88 4 87 88
89 5 88 89
90 3 93 94
91 7 96 97
92 6 99 100
93 8 105 106
94 2 111 112
95 8 114 115
96 4 116 117
97 5 117 118
98 8 119 120
99 4 121 122
100 5 122 123
101 11 129 130
102 4 134 135
103 5 135 136
104 3 137 138
105 3 139 140
106 9 143 144
107 12 145 146
108 3 147 148
109 8 149 150
110 9 153 154
111 3 155 156
112 8 157 158
113 7 159 160
114 4 161 162
115 5 162 163
116 4 164 165
117 5 165 166
118 8 167 168
119 7 173 174
120 4 178 179
121 5 179 180
122 12 181 182
123 6 185 186
124 4 193 194
125 5 194 195
126 4 196 197
127 5 197 198
128 4 199 200
129 5 200 201
130 3 204 205
131 4 206 207
132 10 207 208
133 3 209 210
134 2 211 212
135 9 213 214
136 8 218 219
137 9 222 223
138 4 224 225
139 5 225 226
140 4 227 228
141 5 228 229
142 8 233 234
143 3 235 236
144 13 2 4
145 14 4 6
146 14 6 8
147 14 8 11
148 14 11 12
149 14 12 15
150 14 15 18
151 14 18 20
152 14 20 24
153 14 24 26
154 14 26 28
155 13 28 31
156 13 109 111
157 14 111 113
158 14 113 114
159 14 114 116
160 14 116 119
161 13 119 121
162 13 134 137
163 14 137 139
164 14 139 141
165 14 141 143
166 14 143 145
167 14 145 147
168 14 147 149
169 13 149 153
170 13 157 159
171 14 159 161
172 14 161 164
173 14 164 167
174 13 167 171
175 13 196 199
176 14 199 202
177 14 202 204
178 14 204 206
179 14 206 209
180 14 209 211
181 14 211 213
182 14 213 215
183 14 215 217
184 14 217 218
185 14 218 222
186 14 222 224
187 14 224 227
188 14 227 230
189 14 230 231
190 14 231 233
191 13 233 235
192 15 4 5
193 14 18 19
194 16 21 22
195 16 21 23
196 16 22 23
197 15 24 25
198 16 39 40
199 16 39 41
200 16 40 41
201 17 42 43
202 15 44 45
203 16 57 58
204 16 57 59
205 16 58 59
206 17 63 64
207 16 73 74
208 16 73 75
209 16 74 75
210 16 80 81
211 16 80 82
212 16 81 82
213 17 90 91
214 16 100 101
215 16 100 102
216 16 101 102
217 17 103 104
218 16 106 107
219 16 106 108
220 16 107 108
221 17 109 110
222 14 125 126
223 17 127 128
224 16 130 131
225 16 130 132
226 16 131 132
227 16 131 133
228 16 132 133
229 17 141 142
230 16 150 151
231 16 150 152
232 16 151 152
233 16 168 169
234 16 168 170
235 16 169 170
236 14 171 172
237 17 176 177
238 14 183 184
239 16 186 187
240 16 186 188
241 16 187 188
242 14 191 192
243 17 202 203
244 14 215 216
245 16 219 220
246 16 219 221
247 16 220 221
248 17 231 232

Angles

1 1 1 2 4
2 1 2 4 6
3 2 4 6 8
4 2 6 8 11
5 2 8 11 12
6 2 11 12 15
7 2 12 15 18
8 2 15 18 20
9 2 18 20 24
10 2 20 24 26
11 2 24 26 28
12 3 26 28 31
13 3 28 31 33
14 3 31 33 34
15 3 33 34 36
16 3 34 36 38
17 3 36 38 42
18 1 38 42 44
19 1 42 44 46
20 3 44 46 48
21 3 46 48 51
22 3 48 51 52
23 3 51 52 53
24 1 52 53 56
25 1 53 56 60
26 1 56 60 63
27 1 60 63 65
28 4 63 65 66
29 1 65 66 68
30 1 66 68 70
31 3 68 70 72
32 3 70 72 76
33 3 72 76 77
34 3 76 77 79
35 3 77 79 83
36 3 79 83 84
37 3 83 84 87
38 3 84 87 90
39 3 87 90 92
40 3 90 92 93
41 3 92 93 95
42 1 93 95 96
43 3 95 96 98
44 3 96 98 99
45 3 98 99 103
46 1 99 103 105
47 1 103 105 109
48 1 105 109 111
49 1 109 111 113
50 2 111 113 114
51 2 113 114 116
52 2 114 116 119
53 1 116 119 121
54 1 119 121 124
55 1 121 124 125
56 1 124 125 127
57 1 125 127 129
58 1 127 129 134
59 1 129 134 137
60 4 134 137 139
61 2 137 139 141
62 2 139 141 143
63 2 141 143 145
64 2 143 145 147
65 2 145 147 149
66 3 147 149 153
67 3 149 153 155
68 3 153 155 157
69 3 155 157 159
70 5 157 159 161
71 5 159 161 164
72 2 161 164 167
73 4 164 167 171
74 4 167 171 173
75 3 171 173 175
76 3 173 175 176
77 3 175 176 178
78 1 176 178 181
79 1 178 181 183
80 1 181 183 185
81 1 183 185 189
82 1 185 189 190
83 1 189 190 191
84 1 190 191 193
85 1 191 193 196
86 1 193 196 199
87 4 196 199 202
88 2 199 202 204
89 2 202 204 206
90 2 204 206 209
91 2 206 209 211
92 2 209 211 213
93 2 211 213 215
94 2 213 215 217
95 2 215 217 218
96 2 217 218 222
97 2 218 222 224
98 2 222 224 227
99 2 224 227 230
100 2 227 230 231
101 2 230 231 233
102 1 231 233 235
103 6 1 2 3
104 6 2 4 5
105 6 4 6 7
106 6 6 8 9
107 6 11 12 13
108 6 12 15 16
109 6 15 18 19
110 6 18 20 21
111 6 20 24 25
112 6 24 26 27
113 6 26 28 29
114 6 28 31 32
115 6 33 34 35
116 6 34 36 37
117 6 36 38 39
118 6 38 42 43
119 6 42 44 45
120 6 44 46 47
121 6 46 48 49
122 6 52 53 54
123 6 53 56 57
124 6 56 60 61
125 6 60 63 64
126 6 65 66 67
127 6 66 68 69
128 6 68 70 71
129 6 70 72 73
130 6 76 77 78
131 6 77 79 80
132 6 83 84 85
133 6 84 87 88
134 6 87 90 91
135 6 92 93 94
136 6 95 96 97
137 6 98 99 100
138 6 99 103 104
139 6 103 105 106
140 6 105 109 110
141 6 109 111 112
142 6 113 114 115
143 6 114 116 117
144 6 116 119 120
145 6 119 121 122
146 6 124 125 126
147 6 125 127 128
148 6 127 129 130
149 6 129 134 135
150 6 134 137 138
151 6 137 139 140
152 6 139 141 142
153 6 141 143 144
154 6 143 145 146
155 6 145 147 148
156 6 147 149 150
157 6 149 153 154
158 6 153 155 156
159 6 155 157 158
160 6 157 159 160
161 6 159 161 162
162 6 161 164 165
163 6 164 167 168
164 6 167 171 172
165 6 171 173 174
166 6 175 176 177
167 6 176 178 179
168 6 178 181 182
169 6 181 183 184
170 6 183 185 186
171 6 190 191 192
172 6 191 193 194
173 6 193 196 197
174 6 196 199 200
175 6 199 202 203
176 6 202 204 205
177 6 204 206 207
178 6 206 209 210
179 6 209 211 212
180 6 211 213 214
181 6 213 215 216
182 6 217 218 219
183 6 218 222 223
184 6 222 224 225
185 6 224 227 228
186 6 230 231 232
187 6 231 233 234
188 6 233 235 236
189 7 8 9 10
190 7 12 13 14
191 7 15 16 17
192 8 20 21 22
193 8 20 21 23
194 7 28 29 30
195 8 38 39 40
196 8 38 39 41
197 7 48 49 50
198 7 53 54 55
199 8 56 57 58
200 8 56 57 59
201 7 60 61 62
202 8 72 73 74
203 8 72 73 75
204 8 79 80 81
205 8 79 80 82
206 7 84 85 86
207 7 87 88 89
208 8 99 100 101
209 8 99 100 102
210 8 105 106 107
211 8 105 106 108
212 7 116 117 118
213 7 121 122 123
214 9 129 130 131
215 10 129 130 132
216 7 134 135 136
217 8 149 150 151
218 8 149 150 152
219 7 161 162 163
220 7 164 165 166
221 8 167 168 169
222 8 167 168 170
223 7 178 179 180
224 8 185 186 187
225 8 185 186 188
226 7 193 194 195
227 7 196 197 198
228 7 199 200 201
229 7 206 207 208
230 8 218 219 220
231 8 218 219 221
232 7 224 225 226
233 7 227 228 229

Dihedrals

1 1 4 6 8 11
2 1 6 8 11 12
3 1 8 11 12 15
4 1 11 12 15 18
5 1 12 15 18 20
6 1 15 18 20 24
7 1 18 20 24 26
8 1 20 24 26 28
9 1 111 113 114 116
10 1 113 114 116 119
11 1 137 139 141 143
12 1 139 141 143 145
13 1 141 143 145 147
14 1 143 145 147 149
15 1 159 161 164 167
16 1 199 202 204 206
17 1 202 204 206 209
18 1 204 206 209 211
19 1 206 209 211 213
20 1 209 211 213 215
21 1 211 213 215 217
22 1 213 215 217 218
23 1 215 217 218 222
24 1 217 218 222 224
25 1 218 222 224 227
26 1 222 224 227 230
27 1 224 227 230 231
28 1 227 230 231 233

Impropers

1 1 20 22 23 21
2 1 38 40 41 39
3 1 56 58 59 57
4 1 72 74 75 73
5 1 79 81 82 80
6 1 99 101 102 100
7 1 105 107 108 106
8 1 129 131 132 130
9 2 130 131 133 132
10 1 149 151 152 150
11 1 167 169 170 168
12 1 185 187 188 186
13 1 218 220 221 219

