comment

236 atoms
248 bonds
233 angles
28 dihedrals
13 impropers

17 atom types
17 bond types
10 angle types
1 dihedral types
2 improper types

-40.5 40.5 xlo xhi
-40.5 40.5 ylo yhi
-190.0 190.0 zlo zhi

Masses

1 72.0
2 72.0
3 72.0
4 72.0
5 72.0
6 72.0
7 72.0
8 72.0
9 72.0
10 45.0
11 72.0
12 72.0
13 72.0
14 45.0
15 45.0
16 72.0
17 45.0

PairIJ Coeffs

1 1 1.19503 4.699999999999999
1 2 1.3384336 4.699999999999999
1 3 1.3384336 4.699999999999999
1 4 0.956024 4.699999999999999
1 5 0.478012 4.699999999999999
1 6 0.5497137999999999 4.699999999999999
1 7 0.836521 4.699999999999999
1 8 0.478012 4.699999999999999
1 9 1.19503 4.699999999999999
1 10 0.7409186 4.699999999999999
1 11 1.3384336 4.699999999999999
1 12 1.19503 4.699999999999999
1 13 0.7409186 4.699999999999999
1 14 0.6453162 4.699999999999999
1 15 1.19503 4.699999999999999
1 16 1.19503 4.699999999999999
1 17 0.956024 4.699999999999999
2 2 1.3384336 4.699999999999999
2 3 1.3384336 4.699999999999999
2 4 1.19503 4.699999999999999
2 5 0.5497137999999999 4.699999999999999
2 6 0.6453162 4.699999999999999
2 7 0.836521 4.699999999999999
2 8 0.478012 4.699999999999999
2 9 1.19503 4.699999999999999
2 10 0.7409186 4.699999999999999
2 11 1.3384336 4.699999999999999
2 12 1.19503 4.699999999999999
2 13 0.7409186 4.699999999999999
2 14 0.6453162 4.699999999999999
2 15 1.3384336 4.699999999999999
2 16 1.3384336 4.699999999999999
2 17 1.19503 4.699999999999999
3 3 1.19503 4.699999999999999
3 4 1.19503 4.699999999999999
3 5 0.478012 4.699999999999999
3 6 0.5497137999999999 4.699999999999999
3 7 0.836521 4.699999999999999
3 8 0.478012 4.699999999999999
3 9 0.956024 4.699999999999999
3 10 0.7409186 4.699999999999999
3 11 1.3384336 4.699999999999999
3 12 1.19503 4.699999999999999
3 13 0.7409186 4.699999999999999
3 14 0.6453162 4.699999999999999
3 15 1.19503 4.699999999999999
3 16 1.19503 4.699999999999999
3 17 1.19503 4.699999999999999
4 4 0.956024 4.699999999999999
4 5 0.6453162 4.699999999999999
4 6 0.6453162 4.699999999999999
4 7 0.836521 4.699999999999999
4 8 0.6453162 4.699999999999999
4 9 1.075527 4.699999999999999
4 10 0.836521 4.699999999999999
4 11 0.956024 4.699999999999999
4 12 1.075527 4.699999999999999
4 13 0.836521 4.699999999999999
4 14 0.7409186 4.699999999999999
4 15 1.075527 4.699999999999999
4 16 1.075527 4.699999999999999
4 17 0.956024 4.699999999999999
5 5 0.836521 4.699999999999999
5 6 0.836521 4.699999999999999
5 7 0.7409186 4.699999999999999
5 8 0.836521 4.699999999999999
5 9 0.6453162 4.699999999999999
5 10 0.7409186 4.699999999999999
5 11 0.5497137999999999 4.699999999999999
5 12 0.6453162 4.699999999999999
5 13 0.7409186 4.699999999999999
5 14 0.7409186 4.699999999999999
5 15 0.7409186 4.699999999999999
5 16 0.7409186 4.699999999999999
5 17 0.6453162 4.699999999999999
6 6 0.836521 4.699999999999999
6 7 0.836521 4.699999999999999
6 8 0.836521 4.699999999999999
6 9 0.6453162 4.699999999999999
6 10 0.836521 4.699999999999999
6 11 0.6453162 4.699999999999999
6 12 0.6453162 4.699999999999999
6 13 0.836521 4.699999999999999
6 14 0.836521 4.699999999999999
6 15 0.836521 4.699999999999999
6 16 0.836521 4.699999999999999
6 17 0.6453162 4.699999999999999
7 7 0.836521 4.699999999999999
7 8 0.6453162 4.699999999999999
7 9 0.836521 4.699999999999999
7 10 0.836521 4.699999999999999
7 11 0.836521 4.699999999999999
7 12 0.836521 4.699999999999999
7 13 0.836521 4.699999999999999
7 14 0.836521 4.699999999999999
7 15 0.956024 4.699999999999999
7 16 0.956024 4.699999999999999
7 17 0.836521 4.699999999999999
8 8 0.836521 4.699999999999999
8 9 0.6453162 4.699999999999999
8 10 0.7409186 4.699999999999999
8 11 0.478012 4.699999999999999
8 12 0.6453162 4.699999999999999
8 13 0.7409186 4.699999999999999
8 14 0.7409186 4.699999999999999
8 15 0.6453162 4.699999999999999
8 16 0.6453162 4.699999999999999
8 17 0.6453162 4.699999999999999
9 9 0.956024 4.699999999999999
9 10 0.836521 4.699999999999999
9 11 0.956024 4.699999999999999
9 12 1.075527 4.699999999999999
9 13 0.836521 4.699999999999999
9 14 0.7409186 4.699999999999999
9 15 1.075527 4.699999999999999
9 16 1.075527 4.699999999999999
9 17 1.075527 4.699999999999999
10 10 0.62739075 4.3
10 11 0.7409186 4.699999999999999
10 12 0.836521 4.699999999999999
10 13 0.836521 4.699999999999999
10 14 0.62739075 4.3
10 15 0.62739075 4.3
10 16 0.836521 4.699999999999999
10 17 0.62739075 4.3
11 11 1.19503 4.699999999999999
11 12 0.956024 4.699999999999999
11 13 0.7409186 4.699999999999999
11 14 0.6453162 4.699999999999999
11 15 1.075527 4.699999999999999
11 16 1.075527 4.699999999999999
11 17 0.956024 4.699999999999999
12 12 1.075527 4.699999999999999
12 13 0.836521 4.699999999999999
12 14 0.7409186 4.699999999999999
12 15 1.075527 4.699999999999999
12 16 1.075527 4.699999999999999
12 17 1.075527 4.699999999999999
13 13 0.836521 4.699999999999999
13 14 0.836521 4.699999999999999
13 15 0.836521 4.699999999999999
13 16 0.836521 4.699999999999999
13 17 0.836521 4.699999999999999
14 14 0.62739075 4.3
14 15 0.62739075 4.3
14 16 0.836521 4.699999999999999
14 17 0.5556889500000001 4.3
15 15 0.80664525 4.3
15 16 1.075527 4.699999999999999
15 17 0.80664525 4.3
16 16 1.075527 4.699999999999999
16 17 1.075527 4.699999999999999
17 17 0.7170179999999999 4.3

Bond Coeffs

1 1.4937875 3.5
2 8.962725 3.2
3 5.97515 4.0
4 5.97515 3.3000000000000003
5 5.97515 2.8000000000000003
6 8.962725 3.1
7 8.962725 3.0
8 5.97515 3.2
9 8.962725 3.3000000000000003
10 5.97515 3.4000000000000004
11 5.97515 3.0
12 2.987575 4.0
13 11.9503 3.3000000000000003
14 11.9503 3.1
15 11.9503 2.6500000000000004
16 11.9503 2.7
17 11.9503 2.6

Angle Coeffs

1 2.39006 127
2 83.6521 96
3 2.39006 100
4 2.39006 130
5 11.9503 98
6 2.987575 100
7 2.987575 180
8 5.97515 150
9 5.97515 210
10 5.97515 90

Dihedral Coeffs

1 95.6024 1 -120 0

Improper Coeffs

1 5.97515 0
2 23.9006 0

Atoms

1 1 1 1.0000 1.2549999 -0.027 -48.818
2 1 2 0.0000 0.21181099 0.205137 -51.0857
3 1 3 -1.0000 -1.34727 -0.411583 -53.1931
4 1 4 0.0000 2.09591 2.05057 -54.4367
5 1 5 0.0000 2.8207498 0.0956336 -56.2604
6 1 4 0.0000 1.6082001 5.2603297 -54.751602
7 1 3 -1.0000 -1.4423101 6.10886 -56.363903
8 1 4 0.0000 4.403 6.10542 -56.2587
9 1 6 0.0000 7.1171703 4.52879 -56.0227
10 1 1 1.0000 7.59676 1.63459 -56.382698
11 1 4 0.0000 3.70609 4.70333 -59.4235
12 1 7 0.0000 1.56506 6.98957 -60.311398
13 1 6 0.0000 -1.9184799 6.68076 -61.1586
14 1 1 1.0000 -4.29573 6.0373096 -60.1976
15 1 7 0.0000 3.5485501 9.56227 -59.754402
16 1 6 0.0000 2.27179 11.308201 -56.9254
17 1 1 1.0000 0.307593 10.1801 -55.2272
18 1 7 0.0000 5.93323 9.05188 -61.6762
19 1 8 0.0000 8.40988 7.46238 -60.609
20 1 9 0.0000 4.47615 9.62133 -64.5015
21 1 10 0.0000 5.06803 9.56366 -67.7517
22 1 10 0.0000 5.32247 10.148 -70.783905
23 1 10 0.0000 7.0246296 8.9392 -69.2259
24 1 9 0.0000 3.53297 12.7664995 -63.7421
25 1 5 0.0000 1.15552 14.1787 -63.8454
26 1 9 0.0000 6.4202 13.69 -62.9209
27 1 11 0.0000 5.7849903 17.6308 -64.9394
28 1 9 0.0000 7.8162003 13.2757 -65.9309
29 1 6 0.0000 9.83105 10.7318 -65.6342
30 1 1 1.0000 11.6215 8.92738 -64.9958
31 1 12 0.0000 6.81085 14.1513 -68.918
32 1 13 0.0000 9.06147 14.2802 -70.9206
33 1 7 0.0000 3.8755 14.279799 -68.9793
34 1 12 0.0000 1.26506 12.5104 -68.5081
35 1 11 0.0000 -1.52142 15.9969 -68.7082
36 1 12 0.0000 -0.254823 12.0347 -71.433304
37 1 13 0.0000 -0.980292 15.3766 -71.617294
38 1 2 0.0000 -0.297866 8.97156 -71.536896
39 1 14 0.0000 2.18539 7.8268805 -72.4681
40 1 15 0.0000 3.75865 5.5645 -72.7963
41 1 15 0.0000 4.24213 7.7169104 -74.203804
42 1 2 0.0000 -4.18486 8.07072 -71.4856
43 1 16 0.0000 -5.2416096 8.420011 -73.9308
44 1 2 0.0000 -4.23979 7.21976 -67.4503
45 1 5 0.0000 -3.2881 4.98902 -67.4307
46 1 2 0.0000 -7.0337896 6.7403603 -65.3981
47 1 3 -1.0000 -5.79615 9.7190895 -62.958397
48 1 12 0.0000 -11.2387 3.8010201 -64.348305
49 1 6 0.0000 -12.132 2.24894 -61.4753
50 1 1 1.0000 -11.2444 1.35002 -58.688103
51 1 12 0.0000 -12.4548 5.48826 -67.269806
52 1 2 0.0000 -9.41351 7.78656 -67.1876
53 1 2 0.0000 -10.245 10.696699 -66.5412
54 1 6 0.0000 -10.542999 9.2826805 -62.9255
55 1 1 1.0000 -9.32748 7.5836096 -61.259
56 1 2 0.0000 -8.97666 12.724 -69.8984
57 1 14 0.0000 -9.84254 10.2141 -71.4435
58 1 15 0.0000 -9.62175 7.93191 -72.4244
59 1 15 0.0000 -12.188801 8.33078 -71.6039
60 1 2 0.0000 -5.21056 13.1181 -71.803696
61 1 6 0.0000 -4.3646803 12.200201 -68.7091
62 1 1 1.0000 -4.3428097 12.547899 -66.0358
63 1 2 0.0000 -3.58387 13.0165 -75.2649
64 1 16 0.0000 -2.95497 15.1577 -76.6883
65 1 2 0.0000 -1.66448 10.5914 -76.6179
66 1 11 0.0000 0.321147 7.05795 -76.9362
67 1 6 0.0000 1.40018 6.15155 -79.481705
68 1 2 0.0000 -1.4105799 4.61868 -75.2219
69 1 2 0.0000 -4.55933 4.3223 -76.4728
70 1 2 0.0000 -2.19997 2.39639 -72.309
71 1 8 0.0000 -0.36301798 2.75275 -70.0994
72 1 12 0.0000 -5.8105097 2.35341 -74.6715
73 1 14 0.0000 -7.18144 2.99976 -72.063095
74 1 15 0.0000 -9.34102 3.58588 -71.022
75 1 15 0.0000 -7.73881 3.09903 -68.969795
76 1 12 0.0000 -7.53896 -1.2788401 -73.4644
77 1 2 0.0000 -5.8877997 -2.11405 -70.8781
78 1 8 0.0000 -4.26283 -1.09668 -68.3952
79 1 12 0.0000 -6.10658 -5.52798 -69.875595
80 1 10 0.0000 -5.1637697 -5.73904 -67.1218
81 1 10 0.0000 -3.02883 -5.62614 -65.2163
82 1 10 0.0000 -5.43649 -6.98248 -64.6414
83 1 12 0.0000 -5.6995 -8.18516 -72.7325
84 1 2 0.0000 -5.61917 -6.7001 -75.6423
85 1 7 0.0000 -3.8059802 -4.2461 -75.367195
86 1 1 1.0000 -2.9032497 -1.2379 -76.0415
87 1 2 0.0000 -3.91792 -7.86784 -79.021904
88 1 6 0.0000 -0.631778 -8.88162 -79.9981
89 1 1 1.0000 0.169859 -7.77499 -82.9249
90 1 12 0.0000 -2.26314 -4.3345203 -79.9768
91 1 16 0.0000 0.19195801 -3.73552 -78.7503
92 1 12 0.0000 -5.4732103 -3.39671 -81.2337
93 1 2 0.0000 -6.60668 -1.0092701 -79.0281
94 1 11 0.0000 -8.9153805 -3.78758 -77.7431
95 1 11 0.0000 -8.30374 0.828059 -79.3846
96 1 7 0.0000 -10.2992 3.7582998 -77.1429
97 1 6 0.0000 -12.088799 2.33804 -74.917206
98 1 12 0.0000 -8.59334 6.80266 -77.1982
99 1 2 0.0000 -7.68552 5.3278103 -80.9005
100 1 10 0.0000 -7.1560197 7.6824803 -83.0116
101 1 10 0.0000 -6.18165 8.47542 -85.6229
102 1 10 0.0000 -7.07829 10.4181 -83.9938
103 1 2 0.0000 -4.69005 3.27402 -81.74519
104 1 16 0.0000 -5.4932303 1.9203401 -83.7297
105 1 2 0.0000 -1.87609 5.40055 -82.635
106 1 14 0.0000 -2.92729 8.13653 -81.20599
107 1 14 0.0000 -4.82342 9.16433 -79.6256
108 1 15 0.0000 -3.44446 10.9308 -81.2403
109 1 2 0.0000 -1.38402 4.9271398 -85.9158
110 1 16 0.0000 -1.98404 5.8377 -88.088
111 1 4 0.0000 1.28863 2.93388 -85.837204
112 1 3 -1.0000 2.44731 1.3173001 -87.99519
113 1 7 0.0000 2.15466 2.44561 -82.815796
114 1 12 0.0000 -0.358311 0.711607 -81.8608
115 1 2 0.0000 -0.43139 1.4318501 -79.0799
116 1 12 0.0000 -0.19881698 -1.8969799 -83.9466
117 1 6 0.0000 -2.35142 -1.11872 -86.219795
118 1 1 1.0000 -2.07372 0.23914701 -88.1348
119 1 9 0.0000 2.7837398 -3.09435 -83.3813
120 1 2 0.0000 3.6217098 -3.72966 -86.3226
121 1 2 0.0000 4.93617 -4.72766 -81.26041
122 1 6 0.0000 8.09237 -4.59694 -81.0482
123 1 1 1.0000 10.1463995 -4.97892 -79.0268
124 1 2 0.0000 4.02254 -6.90474 -79.6231
125 1 2 0.0000 2.58697 -7.82205 -77.1054
126 1 8 0.0000 2.65772 -10.8057 -76.3982
127 1 2 0.0000 -0.49088103 -7.90047 -74.3723
128 1 16 0.0000 -1.57775 -9.96533 -75.114296
129 1 2 0.0000 -1.15309 -8.25705 -70.3384
130 1 14 0.0000 -0.97146803 -5.14947 -70.5102
131 1 17 0.0000 -0.138948 -2.65334 -71.5483
132 1 10 0.0000 0.54671 -4.81741 -73.0093
133 1 10 0.0000 1.15132 -2.45204 -73.6963
134 1 2 0.0000 -0.137429 -8.5767 -67.6341
135 1 6 0.0000 2.48984 -11.1403 -67.5715
136 1 1 1.0000 3.51596 -11.6161 -64.773
137 1 4 0.0000 2.30302 -6.52909 -66.5607
138 1 3 -1.0000 5.2824497 -7.63232 -63.340904
139 1 4 0.0000 5.0725 -7.7238297 -67.9093
140 1 3 -1.0000 5.82655 -7.83319 -63.470898
141 1 4 0.0000 4.53446 -6.35256 -70.7621
142 1 16 0.0000 4.19983 -8.07352 -72.7461
143 1 12 0.0000 4.5606604 -3.37986 -69.6663
144 1 8 0.0000 4.0086 -0.097968504 -69.5131
145 1 9 0.0000 7.71713 -3.33603 -68.7106
146 1 13 0.0000 9.9571905 -6.31957 -66.8425
147 1 9 0.0000 8.96506 -3.38197 -71.8756
148 1 3 -1.0000 11.8361 -3.75615 -74.7275
149 1 9 0.0000 7.77292 -0.49347603 -72.983795
150 1 14 0.0000 5.16789 0.963207 -73.9946
151 1 14 0.0000 3.96495 2.7270699 -75.8367
152 1 15 0.0000 2.27093 1.5085299 -73.9141
153 1 12 0.0000 9.19483 1.3865601 -71.2102
154 1 8 0.0000 6.92719 3.42466 -69.9301
155 1 12 0.0000 12.137099 1.02038 -72.1123
156 1 3 -1.0000 15.679701 0.137927 -70.9488
157 1 2 0.0000 13.3936 3.89611 -74.075195
158 1 2 0.0000 16.1859 3.44285 -73.7581
159 1 7 0.0000 10.346399 3.4970303 -75.471504
160 1 6 0.0000 8.4429 5.16684 -74.183304
161 1 12 0.0000 11.3125 3.0938802 -78.340996
162 1 6 0.0000 12.9016 6.19103 -78.3311
163 1 1 1.0000 11.4016 8.08951 -78.4336
164 1 12 0.0000 11.4325 -0.034340102 -78.4084
165 1 6 0.0000 14.246 -0.639402 -77.6266
166 1 1 1.0000 15.8252 -1.3758899 -75.2383
167 1 12 0.0000 8.45646 -0.778404 -77.535
168 1 14 0.0000 6.69188 -3.0759702 -76.4812
169 1 14 0.0000 4.8133097 -4.04821 -75.0438
170 1 15 0.0000 6.7754197 -5.5209 -75.8058
171 1 2 0.0000 6.40132 0.47541702 -79.816696
172 1 8 0.0000 3.6957898 -0.835212 -79.027
173 1 7 0.0000 6.3165803 0.251771 -83.4057
174 1 6 0.0000 8.64021 -1.0037 -84.668304
175 1 12 0.0000 8.93472 3.20542 -82.9976
176 1 2 0.0000 6.3569202 4.64923 -80.3843
177 1 16 0.0000 6.7065296 6.38644 -78.7352
178 1 2 0.0000 4.92488 6.67198 -83.223495
179 1 6 0.0000 6.51245 4.9471703 -85.6201
180 1 1 1.0000 6.42223 2.90118 -87.56
181 1 2 0.0000 2.38594 9.16339 -83.5592
182 1 13 0.0000 1.97294 8.734409 -86.8446
183 1 2 0.0000 1.3761001 11.2383995 -80.84039
184 1 8 0.0000 1.37586 14.3546 -80.877396
185 1 2 0.0000 4.08918 10.865999 -77.963
186 1 10 0.0000 3.4191399 13.6373 -76.831
187 1 10 0.0000 4.0556297 15.5828 -75.2113
188 1 10 0.0000 1.68168 14.9086 -75.9863
189 1 11 0.0000 7.37777 10.931799 -76.332504
190 1 2 0.0000 9.64562 10.1133 -73.7119
191 1 2 0.0000 11.191999 7.7534504 -71.3182
192 1 8 0.0000 12.9652 10.0016 -70.0859
193 1 2 0.0000 11.6411 4.86783 -68.4526
194 1 6 0.0000 14.5189 4.89297 -69.3904
195 1 1 1.0000 16.7486 4.19491 -68.671295
196 1 2 0.0000 15.549299 1.1049299 -65.562
197 1 6 0.0000 18.0009 2.68997 -63.7539
198 1 1 1.0000 17.6029 4.49273 -61.2966
199 1 4 0.0000 14.7078 -1.09167 -63.239002
200 1 6 0.0000 11.7524 -3.59226 -62.013203
201 1 1 1.0000 8.87589 -5.00112 -61.6472
202 1 4 0.0000 13.1739 0.97732 -61.382298
203 1 16 0.0000 12.1665 -0.19576 -59.1464
204 1 4 0.0000 12.0852995 2.92733 -63.7347
205 1 3 -1.0000 14.9744 5.96321 -64.696495
206 1 4 0.0000 10.5212 0.709486 -65.6544
207 1 7 0.0000 11.9759 -1.68907 -67.7106
208 1 1 1.0000 13.1747 -3.51057 -69.7009
209 1 7 0.0000 8.97282 -0.35506502 -63.2336
210 1 3 -1.0000 6.7332897 -1.47026 -59.7808
211 1 7 0.0000 7.31951 2.49819 -62.2593
212 1 3 -1.0000 6.19513 -0.67874 -59.9896
213 1 7 0.0000 5.8874397 2.7178402 -65.1122
214 1 8 0.0000 7.2280197 5.6823897 -65.388
215 1 7 0.0000 4.2129703 -0.128341 -64.937
216 1 8 0.0000 5.16954 -3.0546298 -64.566795
217 1 13 0.0000 2.2135 1.02814 -62.434902
218 1 7 0.0000 0.747281 3.1105802 -63.885002
219 1 14 0.0000 1.60684 5.2960005 -65.4327
220 1 14 0.0000 2.2055001 6.00645 -67.866104
221 1 15 0.0000 0.440197 7.6962204 -66.886505
222 1 7 0.0000 -0.577564 0.763385 -65.9406
223 1 8 0.0000 0.505642 -2.16148 -66.989296
224 1 7 0.0000 -1.6176599 -1.0059999 -63.3049
225 1 6 0.0000 0.992335 -3.25264 -61.924
226 1 1 1.0000 3.5188003 -4.52669 -60.695602
227 1 9 0.0000 -3.2685301 1.20651 -61.984703
228 1 6 0.0000 -2.84966 1.69533 -58.8089
229 1 1 1.0000 -4.03973 2.31822 -56.215702
230 1 7 0.0000 -5.35336 1.9680101 -64.2078
231 1 9 0.0000 -6.84218 -0.788973 -64.3209
232 1 16 0.0000 -8.434771 -1.13604 -66.5075
233 1 9 0.0000 -7.63526 -0.47558698 -61.3595
234 1 2 0.0000 -6.39497 -1.5407599 -58.6698
235 1 3 -1.0000 -7.55721 2.7959 -60.4558
236 1 3 -1.0000 -8.23948 4.75569 -57.695198

Bonds

1 1 1 2
2 1 31 33
3 1 33 34
4 1 34 36
5 1 36 38
6 1 38 42
7 1 42 44
8 1 44 46
9 1 46 48
10 1 48 51
11 1 51 52
12 1 52 53
13 1 53 56
14 1 56 60
15 1 60 63
16 1 63 65
17 1 65 66
18 1 66 68
19 1 68 70
20 1 70 72
21 1 72 76
22 1 76 77
23 1 77 79
24 1 79 83
25 1 83 84
26 1 84 87
27 1 87 90
28 1 90 92
29 1 92 93
30 1 93 95
31 1 95 96
32 1 96 98
33 1 98 99
34 1 99 103
35 1 103 105
36 1 105 109
37 1 121 124
38 1 124 125
39 1 125 127
40 1 127 129
41 1 129 134
42 1 153 155
43 1 155 157
44 1 171 173
45 1 173 175
46 1 175 176
47 1 176 178
48 1 178 181
49 1 181 183
50 1 183 185
51 1 185 189
52 1 189 190
53 1 190 191
54 1 191 193
55 1 193 196
56 2 2 3
57 3 6 7
58 4 8 9
59 5 9 10
60 4 12 13
61 5 13 14
62 4 15 16
63 5 16 17
64 6 20 21
65 3 26 27
66 4 28 29
67 5 29 30
68 6 31 32
69 3 34 35
70 6 36 37
71 2 38 39
72 3 46 47
73 4 48 49
74 5 49 50
75 4 53 54
76 5 54 55
77 2 56 57
78 4 60 61
79 5 61 62
80 7 66 67
81 8 68 69
82 9 70 71
83 2 72 73
84 9 77 78
85 6 79 80
86 4 84 85
87 10 85 86
88 4 87 88
89 5 88 89
90 3 93 94
91 7 96 97
92 6 99 100
93 8 105 106
94 2 111 112
95 8 114 115
96 4 116 117
97 5 117 118
98 8 119 120
99 4 121 122
100 5 122 123
101 11 129 130
102 4 134 135
103 5 135 136
104 3 137 138
105 3 139 140
106 9 143 144
107 12 145 146
108 3 147 148
109 8 149 150
110 9 153 154
111 3 155 156
112 8 157 158
113 7 159 160
114 4 161 162
115 5 162 163
116 4 164 165
117 5 165 166
118 8 167 168
119 7 173 174
120 4 178 179
121 5 179 180
122 12 181 182
123 6 185 186
124 4 193 194
125 5 194 195
126 4 196 197
127 5 197 198
128 4 199 200
129 5 200 201
130 3 204 205
131 4 206 207
132 10 207 208
133 3 209 210
134 2 211 212
135 9 213 214
136 8 218 219
137 9 222 223
138 4 224 225
139 5 225 226
140 4 227 228
141 5 228 229
142 8 233 234
143 3 235 236
144 13 2 4
145 14 4 6
146 14 6 8
147 14 8 11
148 14 11 12
149 14 12 15
150 14 15 18
151 14 18 20
152 14 20 24
153 14 24 26
154 14 26 28
155 13 28 31
156 13 109 111
157 14 111 113
158 14 113 114
159 14 114 116
160 14 116 119
161 13 119 121
162 13 134 137
163 14 137 139
164 14 139 141
165 14 141 143
166 14 143 145
167 14 145 147
168 14 147 149
169 13 149 153
170 13 157 159
171 14 159 161
172 14 161 164
173 14 164 167
174 13 167 171
175 13 196 199
176 14 199 202
177 14 202 204
178 14 204 206
179 14 206 209
180 14 209 211
181 14 211 213
182 14 213 215
183 14 215 217
184 14 217 218
185 14 218 222
186 14 222 224
187 14 224 227
188 14 227 230
189 14 230 231
190 14 231 233
191 13 233 235
192 15 4 5
193 14 18 19
194 16 21 22
195 16 21 23
196 16 22 23
197 15 24 25
198 16 39 40
199 16 39 41
200 16 40 41
201 17 42 43
202 15 44 45
203 16 57 58
204 16 57 59
205 16 58 59
206 17 63 64
207 16 73 74
208 16 73 75
209 16 74 75
210 16 80 81
211 16 80 82
212 16 81 82
213 17 90 91
214 16 100 101
215 16 100 102
216 16 101 102
217 17 103 104
218 16 106 107
219 16 106 108
220 16 107 108
221 17 109 110
222 14 125 126
223 17 127 128
224 16 130 131
225 16 130 132
226 16 131 132
227 16 131 133
228 16 132 133
229 17 141 142
230 16 150 151
231 16 150 152
232 16 151 152
233 16 168 169
234 16 168 170
235 16 169 170
236 14 171 172
237 17 176 177
238 14 183 184
239 16 186 187
240 16 186 188
241 16 187 188
242 14 191 192
243 17 202 203
244 14 215 216
245 16 219 220
246 16 219 221
247 16 220 221
248 17 231 232

Angles

1 1 1 2 4
2 1 2 4 6
3 2 4 6 8
4 2 6 8 11
5 2 8 11 12
6 2 11 12 15
7 2 12 15 18
8 2 15 18 20
9 2 18 20 24
10 2 20 24 26
11 2 24 26 28
12 3 26 28 31
13 3 28 31 33
14 3 31 33 34
15 3 33 34 36
16 3 34 36 38
17 3 36 38 42
18 1 38 42 44
19 1 42 44 46
20 3 44 46 48
21 3 46 48 51
22 3 48 51 52
23 3 51 52 53
24 1 52 53 56
25 1 53 56 60
26 1 56 60 63
27 1 60 63 65
28 4 63 65 66
29 1 65 66 68
30 1 66 68 70
31 3 68 70 72
32 3 70 72 76
33 3 72 76 77
34 3 76 77 79
35 3 77 79 83
36 3 79 83 84
37 3 83 84 87
38 3 84 87 90
39 3 87 90 92
40 3 90 92 93
41 3 92 93 95
42 1 93 95 96
43 3 95 96 98
44 3 96 98 99
45 3 98 99 103
46 1 99 103 105
47 1 103 105 109
48 1 105 109 111
49 1 109 111 113
50 2 111 113 114
51 2 113 114 116
52 2 114 116 119
53 1 116 119 121
54 1 119 121 124
55 1 121 124 125
56 1 124 125 127
57 1 125 127 129
58 1 127 129 134
59 1 129 134 137
60 4 134 137 139
61 2 137 139 141
62 2 139 141 143
63 2 141 143 145
64 2 143 145 147
65 2 145 147 149
66 3 147 149 153
67 3 149 153 155
68 3 153 155 157
69 3 155 157 159
70 5 157 159 161
71 5 159 161 164
72 2 161 164 167
73 4 164 167 171
74 4 167 171 173
75 3 171 173 175
76 3 173 175 176
77 3 175 176 178
78 1 176 178 181
79 1 178 181 183
80 1 181 183 185
81 1 183 185 189
82 1 185 189 190
83 1 189 190 191
84 1 190 191 193
85 1 191 193 196
86 1 193 196 199
87 4 196 199 202
88 2 199 202 204
89 2 202 204 206
90 2 204 206 209
91 2 206 209 211
92 2 209 211 213
93 2 211 213 215
94 2 213 215 217
95 2 215 217 218
96 2 217 218 222
97 2 218 222 224
98 2 222 224 227
99 2 224 227 230
100 2 227 230 231
101 2 230 231 233
102 1 231 233 235
103 6 1 2 3
104 6 2 4 5
105 6 4 6 7
106 6 6 8 9
107 6 11 12 13
108 6 12 15 16
109 6 15 18 19
110 6 18 20 21
111 6 20 24 25
112 6 24 26 27
113 6 26 28 29
114 6 28 31 32
115 6 33 34 35
116 6 34 36 37
117 6 36 38 39
118 6 38 42 43
119 6 42 44 45
120 6 44 46 47
121 6 46 48 49
122 6 52 53 54
123 6 53 56 57
124 6 56 60 61
125 6 60 63 64
126 6 65 66 67
127 6 66 68 69
128 6 68 70 71
129 6 70 72 73
130 6 76 77 78
131 6 77 79 80
132 6 83 84 85
133 6 84 87 88
134 6 87 90 91
135 6 92 93 94
136 6 95 96 97
137 6 98 99 100
138 6 99 103 104
139 6 103 105 106
140 6 105 109 110
141 6 109 111 112
142 6 113 114 115
143 6 114 116 117
144 6 116 119 120
145 6 119 121 122
146 6 124 125 126
147 6 125 127 128
148 6 127 129 130
149 6 129 134 135
150 6 134 137 138
151 6 137 139 140
152 6 139 141 142
153 6 141 143 144
154 6 143 145 146
155 6 145 147 148
156 6 147 149 150
157 6 149 153 154
158 6 153 155 156
159 6 155 157 158
160 6 157 159 160
161 6 159 161 162
162 6 161 164 165
163 6 164 167 168
164 6 167 171 172
165 6 171 173 174
166 6 175 176 177
167 6 176 178 179
168 6 178 181 182
169 6 181 183 184
170 6 183 185 186
171 6 190 191 192
172 6 191 193 194
173 6 193 196 197
174 6 196 199 200
175 6 199 202 203
176 6 202 204 205
177 6 204 206 207
178 6 206 209 210
179 6 209 211 212
180 6 211 213 214
181 6 213 215 216
182 6 217 218 219
183 6 218 222 223
184 6 222 224 225
185 6 224 227 228
186 6 230 231 232
187 6 231 233 234
188 6 233 235 236
189 7 8 9 10
190 7 12 13 14
191 7 15 16 17
192 8 20 21 22
193 8 20 21 23
194 7 28 29 30
195 8 38 39 40
196 8 38 39 41
197 7 48 49 50
198 7 53 54 55
199 8 56 57 58
200 8 56 57 59
201 7 60 61 62
202 8 72 73 74
203 8 72 73 75
204 8 79 80 81
205 8 79 80 82
206 7 84 85 86
207 7 87 88 89
208 8 99 100 101
209 8 99 100 102
210 8 105 106 107
211 8 105 106 108
212 7 116 117 118
213 7 121 122 123
214 9 129 130 131
215 10 129 130 132
216 7 134 135 136
217 8 149 150 151
218 8 149 150 152
219 7 161 162 163
220 7 164 165 166
221 8 167 168 169
222 8 167 168 170
223 7 178 179 180
224 8 185 186 187
225 8 185 186 188
226 7 193 194 195
227 7 196 197 198
228 7 199 200 201
229 7 206 207 208
230 8 218 219 220
231 8 218 219 221
232 7 224 225 226
233 7 227 228 229

Dihedrals

1 1 4 6 8 11
2 1 6 8 11 12
3 1 8 11 12 15
4 1 11 12 15 18
5 1 12 15 18 20
6 1 15 18 20 24
7 1 18 20 24 26
8 1 20 24 26 28
9 1 111 113 114 116
10 1 113 114 116 119
11 1 137 139 141 143
12 1 139 141 143 145
13 1 141 143 145 147
14 1 143 145 147 149
15 1 159 161 164 167
16 1 199 202 204 206
17 1 202 204 206 209
18 1 204 206 209 211
19 1 206 209 211 213
20 1 209 211 213 215
21 1 211 213 215 217
22 1 213 215 217 218
23 1 215 217 218 222
24 1 217 218 222 224
25 1 218 222 224 227
26 1 222 224 227 230
27 1 224 227 230 231
28 1 227 230 231 233

Impropers

1 1 20 22 23 21
2 1 38 40 41 39
3 1 56 58 59 57
4 1 72 74 75 73
5 1 79 81 82 80
6 1 99 101 102 100
7 1 105 107 108 106
8 1 129 131 132 130
9 2 130 131 133 132
10 1 149 151 152 150
11 1 167 169 170 168
12 1 185 187 188 186
13 1 218 220 221 219

