comment

236 atoms
248 bonds
233 angles
28 dihedrals
13 impropers

17 atom types
17 bond types
10 angle types
1 dihedral types
2 improper types

-40.5 40.5 xlo xhi
-40.5 40.5 ylo yhi
-190.0 190.0 zlo zhi

Masses

1 72.0
2 72.0
3 72.0
4 72.0
5 72.0
6 72.0
7 72.0
8 72.0
9 72.0
10 45.0
11 72.0
12 72.0
13 72.0
14 45.0
15 45.0
16 72.0
17 45.0

PairIJ Coeffs

1 1 1.19503 4.699999999999999
1 2 1.3384336 4.699999999999999
1 3 1.3384336 4.699999999999999
1 4 0.956024 4.699999999999999
1 5 0.478012 4.699999999999999
1 6 0.5497137999999999 4.699999999999999
1 7 0.836521 4.699999999999999
1 8 0.478012 4.699999999999999
1 9 1.19503 4.699999999999999
1 10 0.7409186 4.699999999999999
1 11 1.3384336 4.699999999999999
1 12 1.19503 4.699999999999999
1 13 0.7409186 4.699999999999999
1 14 0.6453162 4.699999999999999
1 15 1.19503 4.699999999999999
1 16 1.19503 4.699999999999999
1 17 0.956024 4.699999999999999
2 2 1.3384336 4.699999999999999
2 3 1.3384336 4.699999999999999
2 4 1.19503 4.699999999999999
2 5 0.5497137999999999 4.699999999999999
2 6 0.6453162 4.699999999999999
2 7 0.836521 4.699999999999999
2 8 0.478012 4.699999999999999
2 9 1.19503 4.699999999999999
2 10 0.7409186 4.699999999999999
2 11 1.3384336 4.699999999999999
2 12 1.19503 4.699999999999999
2 13 0.7409186 4.699999999999999
2 14 0.6453162 4.699999999999999
2 15 1.3384336 4.699999999999999
2 16 1.3384336 4.699999999999999
2 17 1.19503 4.699999999999999
3 3 1.19503 4.699999999999999
3 4 1.19503 4.699999999999999
3 5 0.478012 4.699999999999999
3 6 0.5497137999999999 4.699999999999999
3 7 0.836521 4.699999999999999
3 8 0.478012 4.699999999999999
3 9 0.956024 4.699999999999999
3 10 0.7409186 4.699999999999999
3 11 1.3384336 4.699999999999999
3 12 1.19503 4.699999999999999
3 13 0.7409186 4.699999999999999
3 14 0.6453162 4.699999999999999
3 15 1.19503 4.699999999999999
3 16 1.19503 4.699999999999999
3 17 1.19503 4.699999999999999
4 4 0.956024 4.699999999999999
4 5 0.6453162 4.699999999999999
4 6 0.6453162 4.699999999999999
4 7 0.836521 4.699999999999999
4 8 0.6453162 4.699999999999999
4 9 1.075527 4.699999999999999
4 10 0.836521 4.699999999999999
4 11 0.956024 4.699999999999999
4 12 1.075527 4.699999999999999
4 13 0.836521 4.699999999999999
4 14 0.7409186 4.699999999999999
4 15 1.075527 4.699999999999999
4 16 1.075527 4.699999999999999
4 17 0.956024 4.699999999999999
5 5 0.836521 4.699999999999999
5 6 0.836521 4.699999999999999
5 7 0.7409186 4.699999999999999
5 8 0.836521 4.699999999999999
5 9 0.6453162 4.699999999999999
5 10 0.7409186 4.699999999999999
5 11 0.5497137999999999 4.699999999999999
5 12 0.6453162 4.699999999999999
5 13 0.7409186 4.699999999999999
5 14 0.7409186 4.699999999999999
5 15 0.7409186 4.699999999999999
5 16 0.7409186 4.699999999999999
5 17 0.6453162 4.699999999999999
6 6 0.836521 4.699999999999999
6 7 0.836521 4.699999999999999
6 8 0.836521 4.699999999999999
6 9 0.6453162 4.699999999999999
6 10 0.836521 4.699999999999999
6 11 0.6453162 4.699999999999999
6 12 0.6453162 4.699999999999999
6 13 0.836521 4.699999999999999
6 14 0.836521 4.699999999999999
6 15 0.836521 4.699999999999999
6 16 0.836521 4.699999999999999
6 17 0.6453162 4.699999999999999
7 7 0.836521 4.699999999999999
7 8 0.6453162 4.699999999999999
7 9 0.836521 4.699999999999999
7 10 0.836521 4.699999999999999
7 11 0.836521 4.699999999999999
7 12 0.836521 4.699999999999999
7 13 0.836521 4.699999999999999
7 14 0.836521 4.699999999999999
7 15 0.956024 4.699999999999999
7 16 0.956024 4.699999999999999
7 17 0.836521 4.699999999999999
8 8 0.836521 4.699999999999999
8 9 0.6453162 4.699999999999999
8 10 0.7409186 4.699999999999999
8 11 0.478012 4.699999999999999
8 12 0.6453162 4.699999999999999
8 13 0.7409186 4.699999999999999
8 14 0.7409186 4.699999999999999
8 15 0.6453162 4.699999999999999
8 16 0.6453162 4.699999999999999
8 17 0.6453162 4.699999999999999
9 9 0.956024 4.699999999999999
9 10 0.836521 4.699999999999999
9 11 0.956024 4.699999999999999
9 12 1.075527 4.699999999999999
9 13 0.836521 4.699999999999999
9 14 0.7409186 4.699999999999999
9 15 1.075527 4.699999999999999
9 16 1.075527 4.699999999999999
9 17 1.075527 4.699999999999999
10 10 0.62739075 4.3
10 11 0.7409186 4.699999999999999
10 12 0.836521 4.699999999999999
10 13 0.836521 4.699999999999999
10 14 0.62739075 4.3
10 15 0.62739075 4.3
10 16 0.836521 4.699999999999999
10 17 0.62739075 4.3
11 11 1.19503 4.699999999999999
11 12 0.956024 4.699999999999999
11 13 0.7409186 4.699999999999999
11 14 0.6453162 4.699999999999999
11 15 1.075527 4.699999999999999
11 16 1.075527 4.699999999999999
11 17 0.956024 4.699999999999999
12 12 1.075527 4.699999999999999
12 13 0.836521 4.699999999999999
12 14 0.7409186 4.699999999999999
12 15 1.075527 4.699999999999999
12 16 1.075527 4.699999999999999
12 17 1.075527 4.699999999999999
13 13 0.836521 4.699999999999999
13 14 0.836521 4.699999999999999
13 15 0.836521 4.699999999999999
13 16 0.836521 4.699999999999999
13 17 0.836521 4.699999999999999
14 14 0.62739075 4.3
14 15 0.62739075 4.3
14 16 0.836521 4.699999999999999
14 17 0.5556889500000001 4.3
15 15 0.80664525 4.3
15 16 1.075527 4.699999999999999
15 17 0.80664525 4.3
16 16 1.075527 4.699999999999999
16 17 1.075527 4.699999999999999
17 17 0.7170179999999999 4.3

Bond Coeffs

1 1.4937875 3.5
2 8.962725 3.2
3 5.97515 4.0
4 5.97515 3.3000000000000003
5 5.97515 2.8000000000000003
6 8.962725 3.1
7 8.962725 3.0
8 5.97515 3.2
9 8.962725 3.3000000000000003
10 5.97515 3.4000000000000004
11 5.97515 3.0
12 2.987575 4.0
13 11.9503 3.3000000000000003
14 11.9503 3.1
15 11.9503 2.6500000000000004
16 11.9503 2.7
17 11.9503 2.6

Angle Coeffs

1 2.39006 127
2 83.6521 96
3 2.39006 100
4 2.39006 130
5 11.9503 98
6 2.987575 100
7 2.987575 180
8 5.97515 150
9 5.97515 210
10 5.97515 90

Dihedral Coeffs

1 95.6024 1 -120 0

Improper Coeffs

1 5.97515 0
2 23.9006 0

Atoms

1 1 1 1.0000 1.2549999 -0.027 -48.818
2 1 2 0.0000 0.0153769 0.109511994 -51.1511
3 1 3 -1.0000 -1.5313301 -0.618728 -53.234
4 1 4 0.0000 1.67495 2.33201 -54.267002
5 1 5 0.0000 2.7853599 1.08182 -56.717102
6 1 4 0.0000 1.28498 5.54565 -55.0067
7 1 3 -1.0000 -2.04765 6.31621 -56.3209
8 1 4 0.0000 4.07796 6.29664 -56.8834
9 1 6 0.0000 6.7644796 4.45752 -56.9691
10 1 1 1.0000 7.82311 2.51641 -57.4583
11 1 4 0.0000 3.5022802 4.89412 -59.833496
12 1 7 0.0000 1.37776 7.10513 -60.648098
13 1 6 0.0000 -1.81311 6.3744097 -61.4331
14 1 1 1.0000 -4.4977503 6.76653 -60.1363
15 1 7 0.0000 3.5097399 9.54652 -60.0419
16 1 6 0.0000 2.01122 11.5749 -57.7817
17 1 1 1.0000 -0.290512 10.4175 -56.632698
18 1 7 0.0000 5.87786 9.13541 -62.052696
19 1 8 0.0000 8.24543 7.3083105 -60.633102
20 1 9 0.0000 4.349 9.87192 -64.7838
21 1 10 0.0000 5.26706 9.97311 -67.9583
22 1 10 0.0000 5.0096397 9.3377695 -70.2157
23 1 10 0.0000 7.31487 8.80879 -68.9319
24 1 9 0.0000 3.72843 12.951 -63.9964
25 1 5 0.0000 1.35801 13.5585 -63.632202
26 1 9 0.0000 6.5626197 13.8076 -63.088
27 1 11 0.0000 5.7208004 17.2565 -65.064
28 1 9 0.0000 8.18129 13.099299 -65.7311
29 1 6 0.0000 9.74323 10.6866 -65.264
30 1 1 1.0000 11.265499 8.318769 -64.7775
31 1 12 0.0000 7.0634003 14.8024 -68.7658
32 1 13 0.0000 8.9136 14.378901 -71.116196
33 1 7 0.0000 4.28259 14.437799 -69.7223
34 1 12 0.0000 1.7674301 13.0155 -68.5771
35 1 11 0.0000 -0.993723 15.6397 -68.108
36 1 12 0.0000 0.0765986 11.9278 -71.5823
37 1 13 0.0000 -1.31798 14.8498 -71.6087
38 1 2 0.0000 -0.730828 9.244081 -71.2317
39 1 14 0.0000 1.7816 7.70659 -72.579
40 1 15 0.0000 3.3070703 5.69391 -72.5025
41 1 15 0.0000 4.10212 7.3154097 -74.1977
42 1 2 0.0000 -3.62846 7.91878 -72.1454
43 1 16 0.0000 -5.0203505 7.79535 -73.989
44 1 2 0.0000 -5.4545302 6.99701 -69.099594
45 1 5 0.0000 -3.84431 5.94195 -67.5353
46 1 2 0.0000 -8.224131 6.34942 -65.731705
47 1 3 -1.0000 -5.87769 9.46834 -64.084
48 1 12 0.0000 -11.228 3.6406999 -64.585
49 1 6 0.0000 -12.132999 3.09122 -61.6824
50 1 1 1.0000 -11.6704 1.6800799 -59.314
51 1 12 0.0000 -13.565599 5.47776 -67.3441
52 1 2 0.0000 -10.2379 7.53318 -67.2336
53 1 2 0.0000 -11.0399 10.682401 -66.4511
54 1 6 0.0000 -10.5264 10.2317 -63.146
55 1 1 1.0000 -9.69154 7.8633204 -61.1433
56 1 2 0.0000 -9.545549 12.3136 -70.1499
57 1 14 0.0000 -10.029301 9.648479 -71.6017
58 1 15 0.0000 -9.7840395 7.04702 -72.08
59 1 15 0.0000 -12.132501 8.22521 -71.9804
60 1 2 0.0000 -5.87019 12.564 -71.8883
61 1 6 0.0000 -4.59167 12.2458 -69.1242
62 1 1 1.0000 -3.0351 11.2783 -67.055504
63 1 2 0.0000 -3.43271 12.6807995 -75.1522
64 1 16 0.0000 -3.8803 14.7279 -76.8183
65 1 2 0.0000 -0.66980803 11.0803995 -76.6607
66 1 11 0.0000 -0.244698 7.6406097 -77.1817
67 1 6 0.0000 1.87989 6.0270796 -78.919304
68 1 2 0.0000 -1.59271 4.39402 -75.2838
69 1 2 0.0000 -4.38567 3.79314 -76.9588
70 1 2 0.0000 -2.41802 2.33146 -72.4405
71 1 8 0.0000 -0.311982 3.23872 -70.3007
72 1 12 0.0000 -6.39667 2.3169498 -74.1147
73 1 14 0.0000 -7.29732 3.2595801 -71.3227
74 1 15 0.0000 -9.79865 2.67493 -70.2157
75 1 15 0.0000 -7.70268 2.92395 -68.913795
76 1 12 0.0000 -7.53128 -1.48416 -72.803604
77 1 2 0.0000 -5.84404 -2.31784 -70.5905
78 1 8 0.0000 -3.9805002 -0.133229 -68.875496
79 1 12 0.0000 -5.93992 -5.59196 -69.9566
80 1 10 0.0000 -4.39792 -6.2894897 -67.645706
81 1 10 0.0000 -3.7143497 -5.61171 -65.0885
82 1 10 0.0000 -4.41252 -8.03866 -65.4469
83 1 12 0.0000 -5.90143 -8.01175 -72.1401
84 1 2 0.0000 -5.71988 -6.46339 -75.8343
85 1 7 0.0000 -3.94168 -4.44705 -74.6724
86 1 1 1.0000 -3.60777 -1.58494 -75.7425
87 1 2 0.0000 -3.5633998 -7.51908 -79.3293
88 1 6 0.0000 -1.00047 -8.96913 -80.3928
89 1 1 1.0000 0.551327 -10.9074 -80.8718
90 1 12 0.0000 -2.16596 -4.31744 -79.909
91 1 16 0.0000 0.29471698 -3.8752499 -78.799904
92 1 12 0.0000 -4.66201 -3.49452 -82.4947
93 1 2 0.0000 -6.2443104 -1.06652 -79.8048
94 1 11 0.0000 -8.81532 -3.01733 -77.294
95 1 11 0.0000 -8.65714 1.40543 -79.5895
96 1 7 0.0000 -10.118199 4.1396704 -77.3604
97 1 6 0.0000 -10.9688 2.93541 -74.693
98 1 12 0.0000 -8.25498 6.82979 -77.947205
99 1 2 0.0000 -7.46774 5.50663 -80.9366
100 1 10 0.0000 -7.28616 8.01273 -82.75481
101 1 10 0.0000 -5.597 8.97483 -84.3845
102 1 10 0.0000 -7.49918 10.5779 -83.5897
103 1 2 0.0000 -4.48119 3.09228 -81.913994
104 1 16 0.0000 -5.144 1.8787099 -84.2332
105 1 2 0.0000 -1.8462 5.2132797 -82.057106
106 1 14 0.0000 -3.02879 8.10089 -80.9234
107 1 14 0.0000 -4.6223803 9.44131 -79.373695
108 1 15 0.0000 -3.2764301 10.9543 -80.8264
109 1 2 0.0000 -0.799577 4.49191 -85.639694
110 1 16 0.0000 -1.6806 5.9903803 -87.363594
111 1 4 0.0000 2.09083 3.04867 -85.702805
112 1 3 -1.0000 2.98205 1.26421 -88.1402
113 1 7 0.0000 2.60852 2.21128 -82.6346
114 1 12 0.0000 -0.140016 0.370131 -81.985306
115 1 2 0.0000 -0.521118 1.07473 -79.1434
116 1 12 0.0000 0.298002 -1.85669 -84.461296
117 1 6 0.0000 -1.72366 -1.1230301 -86.4631
118 1 1 1.0000 -1.39296 0.40161 -88.9263
119 1 9 0.0000 3.1641798 -3.0326 -83.5168
120 1 2 0.0000 3.92528 -4.76677 -86.569405
121 1 2 0.0000 5.30642 -4.66751 -81.446396
122 1 6 0.0000 8.65837 -4.87139 -81.1691
123 1 1 1.0000 10.3765 -5.56316 -78.7379
124 1 2 0.0000 4.3379 -6.8470902 -79.915
125 1 2 0.0000 2.65349 -8.10532 -76.947395
126 1 8 0.0000 3.90908 -10.6117 -76.5084
127 1 2 0.0000 -0.443285 -7.74384 -74.4357
128 1 16 0.0000 -1.6456599 -9.92116 -75.389496
129 1 2 0.0000 -0.98891306 -8.40333 -70.1588
130 1 14 0.0000 -0.633039 -5.3059397 -70.5045
131 1 17 0.0000 -0.867984 -2.8791401 -71.5153
132 1 10 0.0000 0.715876 -4.61089 -72.8939
133 1 10 0.0000 0.40303302 -2.08026 -73.797104
134 1 2 0.0000 0.505038 -8.50127 -66.883705
135 1 6 0.0000 2.14927 -11.2960005 -66.1707
136 1 1 1.0000 4.4450397 -11.459499 -64.755104
137 1 4 0.0000 2.57678 -6.51402 -66.2024
138 1 3 -1.0000 5.6234903 -7.49615 -62.9523
139 1 4 0.0000 5.28306 -7.53518 -67.5215
140 1 3 -1.0000 5.91309 -7.4232697 -62.9952
141 1 4 0.0000 4.763 -6.20129 -70.5276
142 1 16 0.0000 3.8825102 -8.21759 -72.2568
143 1 12 0.0000 4.51748 -3.2152102 -69.660706
144 1 8 0.0000 3.33925 -0.076756194 -70.1853
145 1 9 0.0000 7.76043 -2.9182 -68.906105
146 1 13 0.0000 9.430779 -5.51476 -67.121704
147 1 9 0.0000 8.79101 -3.35004 -71.9155
148 1 3 -1.0000 11.985901 -3.6736898 -74.5996
149 1 9 0.0000 7.59809 -0.507392 -72.9845
150 1 14 0.0000 5.35677 1.1726401 -74.5912
151 1 14 0.0000 4.18058 2.8299499 -76.0481
152 1 15 0.0000 2.5505 1.7192199 -74.9226
153 1 12 0.0000 9.476911 1.5526301 -71.166
154 1 8 0.0000 6.72118 3.18647 -69.8038
155 1 12 0.0000 12.4223 1.00671 -72.4387
156 1 3 -1.0000 15.8715 0.36257502 -70.8919
157 1 2 0.0000 12.999001 3.95406 -73.8506
158 1 2 0.0000 15.9624 5.11763 -74.559006
159 1 7 0.0000 10.0554 3.7483 -76.1231
160 1 6 0.0000 8.22491 5.07216 -73.9834
161 1 12 0.0000 11.3536 3.14105 -78.7151
162 1 6 0.0000 13.372001 5.89326 -79.18
163 1 1 1.0000 12.5454 8.3724 -78.0012
164 1 12 0.0000 11.9767 0.0741734 -78.259705
165 1 6 0.0000 15.218101 0.188959 -77.2668
166 1 1 1.0000 16.1385 -1.28435 -75.0566
167 1 12 0.0000 8.74702 -0.716274 -77.8006
168 1 14 0.0000 6.79318 -3.39786 -76.7838
169 1 14 0.0000 4.18984 -3.7282898 -75.361496
170 1 15 0.0000 6.4663796 -5.5218897 -75.4831
171 1 2 0.0000 6.73379 0.47140503 -79.8961
172 1 8 0.0000 3.98798 -0.898948 -79.1034
173 1 7 0.0000 7.46891 0.526222 -82.6056
174 1 6 0.0000 7.4661202 -1.05353 -84.71191
175 1 12 0.0000 8.86471 3.56419 -82.5815
176 1 2 0.0000 6.0976896 5.48212 -81.2312
177 1 16 0.0000 6.8941803 6.2420397 -78.7186
178 1 2 0.0000 4.42741 6.7191796 -83.5867
179 1 6 0.0000 6.03046 5.00709 -86.0773
180 1 1 1.0000 6.92174 3.31166 -87.7153
181 1 2 0.0000 2.01665 9.204599 -83.2247
182 1 13 0.0000 1.57111 10.168 -87.3888
183 1 2 0.0000 2.8274598 10.9862 -80.083
184 1 8 0.0000 1.7860601 13.847199 -80.8943
185 1 2 0.0000 4.75497 10.8237 -77.3977
186 1 10 0.0000 3.46118 13.358801 -75.7502
187 1 10 0.0000 4.18604 15.3333 -74.6719
188 1 10 0.0000 1.65993 15.351 -75.4744
189 1 11 0.0000 8.1789 10.5415 -75.6463
190 1 2 0.0000 10.3971 9.10726 -73.225494
191 1 2 0.0000 12.351299 8.58776 -70.3587
192 1 8 0.0000 12.8903 11.079201 -69.3088
193 1 2 0.0000 12.1006 4.68548 -68.6733
194 1 6 0.0000 14.8605 4.9081 -69.2751
195 1 1 1.0000 17.358 4.17651 -68.64
196 1 2 0.0000 15.4318 1.09876 -65.871
197 1 6 0.0000 17.7001 2.2790298 -63.983597
198 1 1 1.0000 18.0993 3.88236 -61.4962
199 1 4 0.0000 14.0476 -1.40154 -63.6923
200 1 6 0.0000 11.8195 -3.81029 -62.308502
201 1 1 1.0000 8.93192 -4.39476 -61.8814
202 1 4 0.0000 12.6992 0.898765 -61.4069
203 1 16 0.0000 11.6642 -0.378694 -59.5076
204 1 4 0.0000 12.150801 3.08296 -63.990402
205 1 3 -1.0000 15.001201 6.0108204 -64.543
206 1 4 0.0000 10.6104 0.973385 -65.7427
207 1 7 0.0000 12.0065 -1.53513 -68.072296
208 1 1 1.0000 13.319401 -3.44593 -70.2888
209 1 7 0.0000 8.88863 -0.21156 -63.4379
210 1 3 -1.0000 6.7137403 -1.19281 -59.4829
211 1 7 0.0000 7.33813 2.17325 -62.4696
212 1 3 -1.0000 6.38885 -0.982445 -59.8487
213 1 7 0.0000 5.6771703 2.6178 -65.2802
214 1 8 0.0000 7.24235 5.69613 -65.5336
215 1 7 0.0000 4.12294 -0.268188 -65.0478
216 1 8 0.0000 5.4440804 -3.08434 -64.8863
217 1 13 0.0000 2.5185702 0.59591 -62.4333
218 1 7 0.0000 0.836679 2.65756 -63.8452
219 1 14 0.0000 1.20061 5.27075 -65.5334
220 1 14 0.0000 2.81104 6.3112497 -67.655
221 1 15 0.0000 0.589688 7.44825 -66.4526
222 1 7 0.0000 -0.99094397 0.44487 -65.732796
223 1 8 0.0000 -0.062919304 -2.16928 -66.8685
224 1 7 0.0000 -2.08913 -1.09302 -63.143803
225 1 6 0.0000 0.43364498 -3.62467 -62.0097
226 1 1 1.0000 3.31658 -4.09958 -60.795998
227 1 9 0.0000 -3.0057 1.60513 -61.7193
228 1 6 0.0000 -2.6227 1.7549001 -58.5486
229 1 1 1.0000 -4.62706 2.23969 -56.0696
230 1 7 0.0000 -4.75223 2.76225 -64.2409
231 1 9 0.0000 -6.6099696 0.266981 -64.512
232 1 16 0.0000 -8.43752 -1.10132 -66.1736
233 1 9 0.0000 -7.3806696 0.318164 -61.612
234 1 2 0.0000 -6.10752 -1.4297099 -59.2724
235 1 3 -1.0000 -7.59618 3.48055 -60.9104
236 1 3 -1.0000 -8.496531 4.6370597 -57.9699

Bonds

1 1 1 2
2 1 31 33
3 1 33 34
4 1 34 36
5 1 36 38
6 1 38 42
7 1 42 44
8 1 44 46
9 1 46 48
10 1 48 51
11 1 51 52
12 1 52 53
13 1 53 56
14 1 56 60
15 1 60 63
16 1 63 65
17 1 65 66
18 1 66 68
19 1 68 70
20 1 70 72
21 1 72 76
22 1 76 77
23 1 77 79
24 1 79 83
25 1 83 84
26 1 84 87
27 1 87 90
28 1 90 92
29 1 92 93
30 1 93 95
31 1 95 96
32 1 96 98
33 1 98 99
34 1 99 103
35 1 103 105
36 1 105 109
37 1 121 124
38 1 124 125
39 1 125 127
40 1 127 129
41 1 129 134
42 1 153 155
43 1 155 157
44 1 171 173
45 1 173 175
46 1 175 176
47 1 176 178
48 1 178 181
49 1 181 183
50 1 183 185
51 1 185 189
52 1 189 190
53 1 190 191
54 1 191 193
55 1 193 196
56 2 2 3
57 3 6 7
58 4 8 9
59 5 9 10
60 4 12 13
61 5 13 14
62 4 15 16
63 5 16 17
64 6 20 21
65 3 26 27
66 4 28 29
67 5 29 30
68 6 31 32
69 3 34 35
70 6 36 37
71 2 38 39
72 3 46 47
73 4 48 49
74 5 49 50
75 4 53 54
76 5 54 55
77 2 56 57
78 4 60 61
79 5 61 62
80 7 66 67
81 8 68 69
82 9 70 71
83 2 72 73
84 9 77 78
85 6 79 80
86 4 84 85
87 10 85 86
88 4 87 88
89 5 88 89
90 3 93 94
91 7 96 97
92 6 99 100
93 8 105 106
94 2 111 112
95 8 114 115
96 4 116 117
97 5 117 118
98 8 119 120
99 4 121 122
100 5 122 123
101 11 129 130
102 4 134 135
103 5 135 136
104 3 137 138
105 3 139 140
106 9 143 144
107 12 145 146
108 3 147 148
109 8 149 150
110 9 153 154
111 3 155 156
112 8 157 158
113 7 159 160
114 4 161 162
115 5 162 163
116 4 164 165
117 5 165 166
118 8 167 168
119 7 173 174
120 4 178 179
121 5 179 180
122 12 181 182
123 6 185 186
124 4 193 194
125 5 194 195
126 4 196 197
127 5 197 198
128 4 199 200
129 5 200 201
130 3 204 205
131 4 206 207
132 10 207 208
133 3 209 210
134 2 211 212
135 9 213 214
136 8 218 219
137 9 222 223
138 4 224 225
139 5 225 226
140 4 227 228
141 5 228 229
142 8 233 234
143 3 235 236
144 13 2 4
145 14 4 6
146 14 6 8
147 14 8 11
148 14 11 12
149 14 12 15
150 14 15 18
151 14 18 20
152 14 20 24
153 14 24 26
154 14 26 28
155 13 28 31
156 13 109 111
157 14 111 113
158 14 113 114
159 14 114 116
160 14 116 119
161 13 119 121
162 13 134 137
163 14 137 139
164 14 139 141
165 14 141 143
166 14 143 145
167 14 145 147
168 14 147 149
169 13 149 153
170 13 157 159
171 14 159 161
172 14 161 164
173 14 164 167
174 13 167 171
175 13 196 199
176 14 199 202
177 14 202 204
178 14 204 206
179 14 206 209
180 14 209 211
181 14 211 213
182 14 213 215
183 14 215 217
184 14 217 218
185 14 218 222
186 14 222 224
187 14 224 227
188 14 227 230
189 14 230 231
190 14 231 233
191 13 233 235
192 15 4 5
193 14 18 19
194 16 21 22
195 16 21 23
196 16 22 23
197 15 24 25
198 16 39 40
199 16 39 41
200 16 40 41
201 17 42 43
202 15 44 45
203 16 57 58
204 16 57 59
205 16 58 59
206 17 63 64
207 16 73 74
208 16 73 75
209 16 74 75
210 16 80 81
211 16 80 82
212 16 81 82
213 17 90 91
214 16 100 101
215 16 100 102
216 16 101 102
217 17 103 104
218 16 106 107
219 16 106 108
220 16 107 108
221 17 109 110
222 14 125 126
223 17 127 128
224 16 130 131
225 16 130 132
226 16 131 132
227 16 131 133
228 16 132 133
229 17 141 142
230 16 150 151
231 16 150 152
232 16 151 152
233 16 168 169
234 16 168 170
235 16 169 170
236 14 171 172
237 17 176 177
238 14 183 184
239 16 186 187
240 16 186 188
241 16 187 188
242 14 191 192
243 17 202 203
244 14 215 216
245 16 219 220
246 16 219 221
247 16 220 221
248 17 231 232

Angles

1 1 1 2 4
2 1 2 4 6
3 2 4 6 8
4 2 6 8 11
5 2 8 11 12
6 2 11 12 15
7 2 12 15 18
8 2 15 18 20
9 2 18 20 24
10 2 20 24 26
11 2 24 26 28
12 3 26 28 31
13 3 28 31 33
14 3 31 33 34
15 3 33 34 36
16 3 34 36 38
17 3 36 38 42
18 1 38 42 44
19 1 42 44 46
20 3 44 46 48
21 3 46 48 51
22 3 48 51 52
23 3 51 52 53
24 1 52 53 56
25 1 53 56 60
26 1 56 60 63
27 1 60 63 65
28 4 63 65 66
29 1 65 66 68
30 1 66 68 70
31 3 68 70 72
32 3 70 72 76
33 3 72 76 77
34 3 76 77 79
35 3 77 79 83
36 3 79 83 84
37 3 83 84 87
38 3 84 87 90
39 3 87 90 92
40 3 90 92 93
41 3 92 93 95
42 1 93 95 96
43 3 95 96 98
44 3 96 98 99
45 3 98 99 103
46 1 99 103 105
47 1 103 105 109
48 1 105 109 111
49 1 109 111 113
50 2 111 113 114
51 2 113 114 116
52 2 114 116 119
53 1 116 119 121
54 1 119 121 124
55 1 121 124 125
56 1 124 125 127
57 1 125 127 129
58 1 127 129 134
59 1 129 134 137
60 4 134 137 139
61 2 137 139 141
62 2 139 141 143
63 2 141 143 145
64 2 143 145 147
65 2 145 147 149
66 3 147 149 153
67 3 149 153 155
68 3 153 155 157
69 3 155 157 159
70 5 157 159 161
71 5 159 161 164
72 2 161 164 167
73 4 164 167 171
74 4 167 171 173
75 3 171 173 175
76 3 173 175 176
77 3 175 176 178
78 1 176 178 181
79 1 178 181 183
80 1 181 183 185
81 1 183 185 189
82 1 185 189 190
83 1 189 190 191
84 1 190 191 193
85 1 191 193 196
86 1 193 196 199
87 4 196 199 202
88 2 199 202 204
89 2 202 204 206
90 2 204 206 209
91 2 206 209 211
92 2 209 211 213
93 2 211 213 215
94 2 213 215 217
95 2 215 217 218
96 2 217 218 222
97 2 218 222 224
98 2 222 224 227
99 2 224 227 230
100 2 227 230 231
101 2 230 231 233
102 1 231 233 235
103 6 1 2 3
104 6 2 4 5
105 6 4 6 7
106 6 6 8 9
107 6 11 12 13
108 6 12 15 16
109 6 15 18 19
110 6 18 20 21
111 6 20 24 25
112 6 24 26 27
113 6 26 28 29
114 6 28 31 32
115 6 33 34 35
116 6 34 36 37
117 6 36 38 39
118 6 38 42 43
119 6 42 44 45
120 6 44 46 47
121 6 46 48 49
122 6 52 53 54
123 6 53 56 57
124 6 56 60 61
125 6 60 63 64
126 6 65 66 67
127 6 66 68 69
128 6 68 70 71
129 6 70 72 73
130 6 76 77 78
131 6 77 79 80
132 6 83 84 85
133 6 84 87 88
134 6 87 90 91
135 6 92 93 94
136 6 95 96 97
137 6 98 99 100
138 6 99 103 104
139 6 103 105 106
140 6 105 109 110
141 6 109 111 112
142 6 113 114 115
143 6 114 116 117
144 6 116 119 120
145 6 119 121 122
146 6 124 125 126
147 6 125 127 128
148 6 127 129 130
149 6 129 134 135
150 6 134 137 138
151 6 137 139 140
152 6 139 141 142
153 6 141 143 144
154 6 143 145 146
155 6 145 147 148
156 6 147 149 150
157 6 149 153 154
158 6 153 155 156
159 6 155 157 158
160 6 157 159 160
161 6 159 161 162
162 6 161 164 165
163 6 164 167 168
164 6 167 171 172
165 6 171 173 174
166 6 175 176 177
167 6 176 178 179
168 6 178 181 182
169 6 181 183 184
170 6 183 185 186
171 6 190 191 192
172 6 191 193 194
173 6 193 196 197
174 6 196 199 200
175 6 199 202 203
176 6 202 204 205
177 6 204 206 207
178 6 206 209 210
179 6 209 211 212
180 6 211 213 214
181 6 213 215 216
182 6 217 218 219
183 6 218 222 223
184 6 222 224 225
185 6 224 227 228
186 6 230 231 232
187 6 231 233 234
188 6 233 235 236
189 7 8 9 10
190 7 12 13 14
191 7 15 16 17
192 8 20 21 22
193 8 20 21 23
194 7 28 29 30
195 8 38 39 40
196 8 38 39 41
197 7 48 49 50
198 7 53 54 55
199 8 56 57 58
200 8 56 57 59
201 7 60 61 62
202 8 72 73 74
203 8 72 73 75
204 8 79 80 81
205 8 79 80 82
206 7 84 85 86
207 7 87 88 89
208 8 99 100 101
209 8 99 100 102
210 8 105 106 107
211 8 105 106 108
212 7 116 117 118
213 7 121 122 123
214 9 129 130 131
215 10 129 130 132
216 7 134 135 136
217 8 149 150 151
218 8 149 150 152
219 7 161 162 163
220 7 164 165 166
221 8 167 168 169
222 8 167 168 170
223 7 178 179 180
224 8 185 186 187
225 8 185 186 188
226 7 193 194 195
227 7 196 197 198
228 7 199 200 201
229 7 206 207 208
230 8 218 219 220
231 8 218 219 221
232 7 224 225 226
233 7 227 228 229

Dihedrals

1 1 4 6 8 11
2 1 6 8 11 12
3 1 8 11 12 15
4 1 11 12 15 18
5 1 12 15 18 20
6 1 15 18 20 24
7 1 18 20 24 26
8 1 20 24 26 28
9 1 111 113 114 116
10 1 113 114 116 119
11 1 137 139 141 143
12 1 139 141 143 145
13 1 141 143 145 147
14 1 143 145 147 149
15 1 159 161 164 167
16 1 199 202 204 206
17 1 202 204 206 209
18 1 204 206 209 211
19 1 206 209 211 213
20 1 209 211 213 215
21 1 211 213 215 217
22 1 213 215 217 218
23 1 215 217 218 222
24 1 217 218 222 224
25 1 218 222 224 227
26 1 222 224 227 230
27 1 224 227 230 231
28 1 227 230 231 233

Impropers

1 1 20 22 23 21
2 1 38 40 41 39
3 1 56 58 59 57
4 1 72 74 75 73
5 1 79 81 82 80
6 1 99 101 102 100
7 1 105 107 108 106
8 1 129 131 132 130
9 2 130 131 133 132
10 1 149 151 152 150
11 1 167 169 170 168
12 1 185 187 188 186
13 1 218 220 221 219

