comment

236 atoms
248 bonds
233 angles
28 dihedrals
13 impropers

17 atom types
17 bond types
10 angle types
1 dihedral types
2 improper types

-40.5 40.5 xlo xhi
-40.5 40.5 ylo yhi
-190.0 190.0 zlo zhi

Masses

1 72.0
2 72.0
3 72.0
4 72.0
5 72.0
6 72.0
7 72.0
8 72.0
9 72.0
10 45.0
11 72.0
12 72.0
13 72.0
14 45.0
15 45.0
16 72.0
17 45.0

PairIJ Coeffs

1 1 1.19503 4.699999999999999
1 2 1.3384336 4.699999999999999
1 3 1.3384336 4.699999999999999
1 4 0.956024 4.699999999999999
1 5 0.478012 4.699999999999999
1 6 0.5497137999999999 4.699999999999999
1 7 0.836521 4.699999999999999
1 8 0.478012 4.699999999999999
1 9 1.19503 4.699999999999999
1 10 0.7409186 4.699999999999999
1 11 1.3384336 4.699999999999999
1 12 1.19503 4.699999999999999
1 13 0.7409186 4.699999999999999
1 14 0.6453162 4.699999999999999
1 15 1.19503 4.699999999999999
1 16 1.19503 4.699999999999999
1 17 0.956024 4.699999999999999
2 2 1.3384336 4.699999999999999
2 3 1.3384336 4.699999999999999
2 4 1.19503 4.699999999999999
2 5 0.5497137999999999 4.699999999999999
2 6 0.6453162 4.699999999999999
2 7 0.836521 4.699999999999999
2 8 0.478012 4.699999999999999
2 9 1.19503 4.699999999999999
2 10 0.7409186 4.699999999999999
2 11 1.3384336 4.699999999999999
2 12 1.19503 4.699999999999999
2 13 0.7409186 4.699999999999999
2 14 0.6453162 4.699999999999999
2 15 1.3384336 4.699999999999999
2 16 1.3384336 4.699999999999999
2 17 1.19503 4.699999999999999
3 3 1.19503 4.699999999999999
3 4 1.19503 4.699999999999999
3 5 0.478012 4.699999999999999
3 6 0.5497137999999999 4.699999999999999
3 7 0.836521 4.699999999999999
3 8 0.478012 4.699999999999999
3 9 0.956024 4.699999999999999
3 10 0.7409186 4.699999999999999
3 11 1.3384336 4.699999999999999
3 12 1.19503 4.699999999999999
3 13 0.7409186 4.699999999999999
3 14 0.6453162 4.699999999999999
3 15 1.19503 4.699999999999999
3 16 1.19503 4.699999999999999
3 17 1.19503 4.699999999999999
4 4 0.956024 4.699999999999999
4 5 0.6453162 4.699999999999999
4 6 0.6453162 4.699999999999999
4 7 0.836521 4.699999999999999
4 8 0.6453162 4.699999999999999
4 9 1.075527 4.699999999999999
4 10 0.836521 4.699999999999999
4 11 0.956024 4.699999999999999
4 12 1.075527 4.699999999999999
4 13 0.836521 4.699999999999999
4 14 0.7409186 4.699999999999999
4 15 1.075527 4.699999999999999
4 16 1.075527 4.699999999999999
4 17 0.956024 4.699999999999999
5 5 0.836521 4.699999999999999
5 6 0.836521 4.699999999999999
5 7 0.7409186 4.699999999999999
5 8 0.836521 4.699999999999999
5 9 0.6453162 4.699999999999999
5 10 0.7409186 4.699999999999999
5 11 0.5497137999999999 4.699999999999999
5 12 0.6453162 4.699999999999999
5 13 0.7409186 4.699999999999999
5 14 0.7409186 4.699999999999999
5 15 0.7409186 4.699999999999999
5 16 0.7409186 4.699999999999999
5 17 0.6453162 4.699999999999999
6 6 0.836521 4.699999999999999
6 7 0.836521 4.699999999999999
6 8 0.836521 4.699999999999999
6 9 0.6453162 4.699999999999999
6 10 0.836521 4.699999999999999
6 11 0.6453162 4.699999999999999
6 12 0.6453162 4.699999999999999
6 13 0.836521 4.699999999999999
6 14 0.836521 4.699999999999999
6 15 0.836521 4.699999999999999
6 16 0.836521 4.699999999999999
6 17 0.6453162 4.699999999999999
7 7 0.836521 4.699999999999999
7 8 0.6453162 4.699999999999999
7 9 0.836521 4.699999999999999
7 10 0.836521 4.699999999999999
7 11 0.836521 4.699999999999999
7 12 0.836521 4.699999999999999
7 13 0.836521 4.699999999999999
7 14 0.836521 4.699999999999999
7 15 0.956024 4.699999999999999
7 16 0.956024 4.699999999999999
7 17 0.836521 4.699999999999999
8 8 0.836521 4.699999999999999
8 9 0.6453162 4.699999999999999
8 10 0.7409186 4.699999999999999
8 11 0.478012 4.699999999999999
8 12 0.6453162 4.699999999999999
8 13 0.7409186 4.699999999999999
8 14 0.7409186 4.699999999999999
8 15 0.6453162 4.699999999999999
8 16 0.6453162 4.699999999999999
8 17 0.6453162 4.699999999999999
9 9 0.956024 4.699999999999999
9 10 0.836521 4.699999999999999
9 11 0.956024 4.699999999999999
9 12 1.075527 4.699999999999999
9 13 0.836521 4.699999999999999
9 14 0.7409186 4.699999999999999
9 15 1.075527 4.699999999999999
9 16 1.075527 4.699999999999999
9 17 1.075527 4.699999999999999
10 10 0.62739075 4.3
10 11 0.7409186 4.699999999999999
10 12 0.836521 4.699999999999999
10 13 0.836521 4.699999999999999
10 14 0.62739075 4.3
10 15 0.62739075 4.3
10 16 0.836521 4.699999999999999
10 17 0.62739075 4.3
11 11 1.19503 4.699999999999999
11 12 0.956024 4.699999999999999
11 13 0.7409186 4.699999999999999
11 14 0.6453162 4.699999999999999
11 15 1.075527 4.699999999999999
11 16 1.075527 4.699999999999999
11 17 0.956024 4.699999999999999
12 12 1.075527 4.699999999999999
12 13 0.836521 4.699999999999999
12 14 0.7409186 4.699999999999999
12 15 1.075527 4.699999999999999
12 16 1.075527 4.699999999999999
12 17 1.075527 4.699999999999999
13 13 0.836521 4.699999999999999
13 14 0.836521 4.699999999999999
13 15 0.836521 4.699999999999999
13 16 0.836521 4.699999999999999
13 17 0.836521 4.699999999999999
14 14 0.62739075 4.3
14 15 0.62739075 4.3
14 16 0.836521 4.699999999999999
14 17 0.5556889500000001 4.3
15 15 0.80664525 4.3
15 16 1.075527 4.699999999999999
15 17 0.80664525 4.3
16 16 1.075527 4.699999999999999
16 17 1.075527 4.699999999999999
17 17 0.7170179999999999 4.3

Bond Coeffs

1 1.4937875 3.5
2 8.962725 3.2
3 5.97515 4.0
4 5.97515 3.3000000000000003
5 5.97515 2.8000000000000003
6 8.962725 3.1
7 8.962725 3.0
8 5.97515 3.2
9 8.962725 3.3000000000000003
10 5.97515 3.4000000000000004
11 5.97515 3.0
12 2.987575 4.0
13 11.9503 3.3000000000000003
14 11.9503 3.1
15 11.9503 2.6500000000000004
16 11.9503 2.7
17 11.9503 2.6

Angle Coeffs

1 2.39006 127
2 83.6521 96
3 2.39006 100
4 2.39006 130
5 11.9503 98
6 2.987575 100
7 2.987575 180
8 5.97515 150
9 5.97515 210
10 5.97515 90

Dihedral Coeffs

1 95.6024 1 -120 0

Improper Coeffs

1 5.97515 0
2 23.9006 0

Atoms

1 1 1 1.0000 1.2549999 -0.027 -48.818
2 1 2 0.0000 0.101001 0.275656 -51.090202
3 1 3 -1.0000 -1.50855 -0.67481196 -53.211098
4 1 4 0.0000 1.7062999 2.30951 -54.276
5 1 5 0.0000 2.7881198 1.01499 -56.6876
6 1 4 0.0000 1.28725 5.58155 -55.0284
7 1 3 -1.0000 -2.07841 6.2461 -56.3143
8 1 4 0.0000 4.11913 6.2742605 -56.870598
9 1 6 0.0000 6.83752 4.47923 -56.9844
10 1 1 1.0000 8.43451 2.19608 -57.2335
11 1 4 0.0000 3.52819 4.9271803 -59.9515
12 1 7 0.0000 1.36412 7.0846896 -60.6893
13 1 6 0.0000 -1.8150599 6.4185705 -61.458202
14 1 1 1.0000 -4.44774 6.5026197 -60.5279
15 1 7 0.0000 3.50785 9.56703 -60.035
16 1 6 0.0000 2.03251 11.5411 -57.8012
17 1 1 1.0000 -0.366471 10.335199 -56.687004
18 1 7 0.0000 5.81073 9.099649 -62.1147
19 1 8 0.0000 8.2721195 7.3748302 -60.587
20 1 9 0.0000 4.29689 9.9277 -64.8043
21 1 10 0.0000 5.3298197 9.93881 -67.9901
22 1 10 0.0000 5.11081 9.35665 -70.1825
23 1 10 0.0000 7.3624997 8.83736 -68.9116
24 1 9 0.0000 3.6954 12.9241 -64.0026
25 1 5 0.0000 1.35938 13.54 -63.6834
26 1 9 0.0000 6.52722 13.8413 -63.0813
27 1 11 0.0000 5.75053 17.2831 -65.0779
28 1 9 0.0000 8.17468 13.2094 -65.8021
29 1 6 0.0000 9.80188 10.6668 -65.2269
30 1 1 1.0000 11.124701 8.61266 -64.9711
31 1 12 0.0000 7.0327597 14.849 -68.7518
32 1 13 0.0000 8.8430395 14.3585005 -71.0444
33 1 7 0.0000 4.2389803 14.4376 -69.7156
34 1 12 0.0000 1.76085 12.9922 -68.5326
35 1 11 0.0000 -1.10278 15.6663 -68.1613
36 1 12 0.0000 0.0150673 11.928999 -71.637405
37 1 13 0.0000 -1.32349 14.9059 -71.6121
38 1 2 0.0000 -0.559357 8.877991 -71.2444
39 1 14 0.0000 1.76908 7.62927 -72.5438
40 1 15 0.0000 3.3168502 5.7061 -72.508606
41 1 15 0.0000 4.06135 7.3192697 -74.2816
42 1 2 0.0000 -3.89238 8.16497 -71.8155
43 1 16 0.0000 -5.03053 7.80164 -74.0097
44 1 2 0.0000 -5.63874 7.23788 -68.8154
45 1 5 0.0000 -3.8499298 5.97058 -67.6493
46 1 2 0.0000 -8.05217 6.34012 -65.761
47 1 3 -1.0000 -5.91558 9.44404 -64.0876
48 1 12 0.0000 -11.282999 3.61318 -64.5748
49 1 6 0.0000 -12.2633 3.1139998 -61.689
50 1 1 1.0000 -11.686601 1.79682 -59.520897
51 1 12 0.0000 -13.6047 5.46483 -67.2961
52 1 2 0.0000 -10.4046 7.6703796 -67.04
53 1 2 0.0000 -11.6665 10.9869 -66.3634
54 1 6 0.0000 -10.4849 10.349999 -63.159298
55 1 1 1.0000 -9.82944 7.99135 -61.370102
56 1 2 0.0000 -9.06302 12.0612 -69.6414
57 1 14 0.0000 -9.99977 9.6660795 -71.644
58 1 15 0.0000 -9.720551 6.92729 -72.077194
59 1 15 0.0000 -12.1285 8.25303 -71.9406
60 1 2 0.0000 -6.23425 12.8063 -71.759
61 1 6 0.0000 -4.59336 12.3201 -69.0522
62 1 1 1.0000 -3.00542 11.2749 -67.173904
63 1 2 0.0000 -3.69365 12.6675 -75.4648
64 1 16 0.0000 -3.88691 14.6987 -76.8473
65 1 2 0.0000 -0.46082002 10.4148 -76.6533
66 1 11 0.0000 -0.296371 7.6130905 -77.1874
67 1 6 0.0000 1.8435099 6.0413404 -79.025795
68 1 2 0.0000 -1.5501399 4.41956 -74.945
69 1 2 0.0000 -4.43245 3.80332 -76.9144
70 1 2 0.0000 -2.2004201 2.72967 -72.6658
71 1 8 0.0000 -0.313079 3.26442 -70.27
72 1 12 0.0000 -6.32433 2.31432 -74.1635
73 1 14 0.0000 -7.31563 3.28717 -71.388306
74 1 15 0.0000 -9.77948 2.5812001 -70.2101
75 1 15 0.0000 -7.7107296 2.95674 -68.9128
76 1 12 0.0000 -7.53449 -1.5051501 -72.7942
77 1 2 0.0000 -5.89112 -2.14379 -70.354904
78 1 8 0.0000 -3.9836903 -0.110677 -68.846
79 1 12 0.0000 -5.95471 -5.5271 -69.9868
80 1 10 0.0000 -4.3969398 -6.28092 -67.6117
81 1 10 0.0000 -3.7311802 -5.5637097 -65.0733
82 1 10 0.0000 -4.38515 -8.07145 -65.4819
83 1 12 0.0000 -5.91043 -8.02359 -72.1296
84 1 2 0.0000 -5.74925 -6.8460298 -75.827896
85 1 7 0.0000 -3.96285 -4.49958 -74.6903
86 1 1 1.0000 -3.49996 -1.3858099 -75.969
87 1 2 0.0000 -3.9097 -7.38585 -79.1208
88 1 6 0.0000 -1.02711 -8.9946995 -80.413506
89 1 1 1.0000 0.789997 -11.0983 -80.8162
90 1 12 0.0000 -2.1333299 -4.30245 -79.914795
91 1 16 0.0000 0.324429 -3.8997302 -78.8029
92 1 12 0.0000 -4.70274 -3.50567 -82.5111
93 1 2 0.0000 -6.365 -1.57201 -79.5762
94 1 11 0.0000 -8.81904 -3.0619402 -77.3069
95 1 11 0.0000 -8.625919 1.3622799 -79.559494
96 1 7 0.0000 -10.1405 4.17796 -77.365
97 1 6 0.0000 -10.9826 2.8828702 -74.634
98 1 12 0.0000 -8.23798 6.79132 -77.915504
99 1 2 0.0000 -7.38918 5.43212 -81.1989
100 1 10 0.0000 -7.2640996 8.008631 -82.73309
101 1 10 0.0000 -5.57796 8.91661 -84.2873
102 1 10 0.0000 -7.41807 10.5309 -83.5468
103 1 2 0.0000 -4.90731 3.3366098 -81.937706
104 1 16 0.0000 -5.16056 1.8854799 -84.1844
105 1 2 0.0000 -2.08874 5.5225496 -82.5085
106 1 14 0.0000 -3.0534 8.09175 -80.9892
107 1 14 0.0000 -4.59866 9.47202 -79.366295
108 1 15 0.0000 -3.31489 10.9455 -80.723495
109 1 2 0.0000 -0.727356 4.4903297 -85.5905
110 1 16 0.0000 -1.6844 6.02046 -87.3598
111 1 4 0.0000 2.08896 3.11411 -85.6913
112 1 3 -1.0000 3.0306 1.28362 -88.110504
113 1 7 0.0000 2.57074 2.2121 -82.6849
114 1 12 0.0000 -0.073563 0.298525 -81.99431
115 1 2 0.0000 -0.258349 1.21487 -78.9506
116 1 12 0.0000 0.273713 -1.83123 -84.3711
117 1 6 0.0000 -1.7457099 -1.08598 -86.4528
118 1 1 1.0000 -1.26314 -0.015393401 -89.2628
119 1 9 0.0000 3.19229 -2.98742 -83.5361
120 1 2 0.0000 3.95725 -4.70708 -86.657
121 1 2 0.0000 5.6589003 -4.22991 -81.5189
122 1 6 0.0000 8.69106 -4.79505 -81.144104
123 1 1 1.0000 10.5016 -5.54885 -78.7567
124 1 2 0.0000 4.50934 -6.92496 -79.9474
125 1 2 0.0000 2.39718 -7.87628 -77.0009
126 1 8 0.0000 3.89531 -10.651701 -76.5562
127 1 2 0.0000 0.00957652 -8.14022 -74.945
128 1 16 0.0000 -1.5407599 -9.87217 -75.3944
129 1 2 0.0000 -0.715591 -8.35643 -70.5905
130 1 14 0.0000 -0.608019 -5.2558203 -70.5081
131 1 17 0.0000 -0.81455 -2.91579 -71.439804
132 1 10 0.0000 0.687629 -4.55387 -72.8877
133 1 10 0.0000 0.461854 -1.97107 -73.7803
134 1 2 0.0000 0.119917005 -8.52342 -67.1163
135 1 6 0.0000 2.1292899 -11.2471 -66.126495
136 1 1 1.0000 4.10563 -11.5009 -64.6575
137 1 4 0.0000 2.58903 -6.5005302 -66.2417
138 1 3 -1.0000 5.6096 -7.49053 -63.0069
139 1 4 0.0000 5.2885904 -7.46269 -67.5603
140 1 3 -1.0000 5.78037 -7.4726896 -63.0415
141 1 4 0.0000 4.6704597 -6.1907 -70.4718
142 1 16 0.0000 3.81436 -8.20788 -72.2665
143 1 12 0.0000 4.5121603 -3.20582 -69.6458
144 1 8 0.0000 3.3692198 -0.0431645 -70.166405
145 1 9 0.0000 7.80093 -2.8733501 -68.9651
146 1 13 0.0000 9.49718 -5.45208 -67.031494
147 1 9 0.0000 8.81807 -3.38513 -71.934296
148 1 3 -1.0000 11.9904995 -3.7390199 -74.6251
149 1 9 0.0000 7.6394396 -0.535046 -73.042206
150 1 14 0.0000 5.38652 1.14943 -74.612495
151 1 14 0.0000 4.2565303 2.84823 -76.0218
152 1 15 0.0000 2.57478 1.7923499 -74.9504
153 1 12 0.0000 9.5035305 1.54422 -71.177505
154 1 8 0.0000 6.71986 3.16764 -69.7472
155 1 12 0.0000 12.4223995 1.01831 -72.4731
156 1 3 -1.0000 15.873199 0.35934502 -70.8431
157 1 2 0.0000 12.859699 3.90385 -74.1997
158 1 2 0.0000 15.641201 5.10212 -74.519104
159 1 7 0.0000 10.0034 3.6811101 -76.0335
160 1 6 0.0000 8.24845 5.0391903 -73.992
161 1 12 0.0000 11.4247 3.21327 -78.7401
162 1 6 0.0000 13.384399 5.90303 -79.1706
163 1 1 1.0000 12.6413 8.16198 -77.5916
164 1 12 0.0000 11.9881 0.0729276 -78.2402
165 1 6 0.0000 15.1941 0.206078 -77.308304
166 1 1 1.0000 15.8499 -1.05211 -75.2705
167 1 12 0.0000 8.720711 -0.73506 -77.8126
168 1 14 0.0000 6.8075504 -3.3776302 -76.8051
169 1 14 0.0000 4.3096 -3.72647 -75.4163
170 1 15 0.0000 6.41415 -5.60423 -75.4968
171 1 2 0.0000 6.27816 0.70093805 -79.562996
172 1 8 0.0000 4.02717 -0.872156 -79.0513
173 1 7 0.0000 7.52092 0.46306497 -82.5505
174 1 6 0.0000 7.42638 -1.0257499 -84.7692
175 1 12 0.0000 8.83936 3.61173 -82.5785
176 1 2 0.0000 6.2276897 5.37794 -80.9521
177 1 16 0.0000 6.84588 6.1775303 -78.7525
178 1 2 0.0000 4.54506 6.8308 -83.6287
179 1 6 0.0000 6.05205 4.9643 -86.0732
180 1 1 1.0000 7.2542696 2.95336 -87.5097
181 1 2 0.0000 1.7123901 8.92282 -83.534805
182 1 13 0.0000 1.6696 10.1425 -87.4545
183 1 2 0.0000 3.28253 11.346399 -80.536804
184 1 8 0.0000 1.7758299 13.8904 -80.82539
185 1 2 0.0000 4.96449 10.836901 -77.3501
186 1 10 0.0000 3.5479598 13.396999 -75.7703
187 1 10 0.0000 4.18579 15.316 -74.6344
188 1 10 0.0000 1.6871799 15.3818 -75.5034
189 1 11 0.0000 8.20829 10.5681 -75.6801
190 1 2 0.0000 10.4172 9.12652 -73.068
191 1 2 0.0000 12.0385 8.41708 -70.3979
192 1 8 0.0000 12.9237995 11.0574 -69.1957
193 1 2 0.0000 11.8749 4.96602 -68.558205
194 1 6 0.0000 14.8752 4.85113 -69.2073
195 1 1 1.0000 17.0907 4.27631 -68.3713
196 1 2 0.0000 15.577101 1.12708 -66.0607
197 1 6 0.0000 17.6973 2.29833 -63.9263
198 1 1 1.0000 17.840801 3.9113598 -61.5567
199 1 4 0.0000 13.976999 -1.36037 -63.719402
200 1 6 0.0000 11.8078 -3.8220098 -62.3164
201 1 1 1.0000 8.9279 -4.79583 -61.206497
202 1 4 0.0000 12.662 0.84834903 -61.5016
203 1 16 0.0000 11.7045 -0.375879 -59.5214
204 1 4 0.0000 12.1251 3.1389 -63.9849
205 1 3 -1.0000 15.018801 5.97295 -64.5353
206 1 4 0.0000 10.6291 0.96784705 -65.7482
207 1 7 0.0000 12.0383 -1.5009401 -68.0382
208 1 1 1.0000 13.6849 -3.53569 -69.8704
209 1 7 0.0000 8.88593 -0.231146 -63.4992
210 1 3 -1.0000 6.71754 -1.18251 -59.552498
211 1 7 0.0000 7.36027 2.12873 -62.456596
212 1 3 -1.0000 6.45339 -0.966309 -59.869698
213 1 7 0.0000 5.64647 2.56578 -65.2658
214 1 8 0.0000 7.22038 5.69347 -65.5133
215 1 7 0.0000 4.15723 -0.31390202 -65.0952
216 1 8 0.0000 5.4486 -3.1025698 -64.883896
217 1 13 0.0000 2.4919 0.626398 -62.4441
218 1 7 0.0000 0.788839 2.72895 -63.860302
219 1 14 0.0000 1.19457 5.30009 -65.4836
220 1 14 0.0000 2.76279 6.2662797 -67.7564
221 1 15 0.0000 0.605061 7.5332 -66.3901
222 1 7 0.0000 -0.935412 0.45630002 -65.7508
223 1 8 0.0000 -0.0584498 -2.18824 -66.845
224 1 7 0.0000 -2.12558 -1.07087 -63.053
225 1 6 0.0000 0.428958 -3.71773 -61.999
226 1 1 1.0000 3.14503 -4.18018 -61.031498
227 1 9 0.0000 -3.01821 1.58546 -61.6632
228 1 6 0.0000 -2.69227 1.68218 -58.502598
229 1 1 1.0000 -4.66089 2.2569 -56.511997
230 1 7 0.0000 -4.73973 2.7547402 -64.2739
231 1 9 0.0000 -6.59868 0.16591999 -64.4913
232 1 16 0.0000 -8.4963 -1.1152099 -66.1793
233 1 9 0.0000 -7.34839 0.249319 -61.555298
234 1 2 0.0000 -6.09348 -1.93671 -59.8965
235 1 3 -1.0000 -7.65658 3.46887 -60.9663
236 1 3 -1.0000 -8.54066 4.58098 -58.0063

Bonds

1 1 1 2
2 1 31 33
3 1 33 34
4 1 34 36
5 1 36 38
6 1 38 42
7 1 42 44
8 1 44 46
9 1 46 48
10 1 48 51
11 1 51 52
12 1 52 53
13 1 53 56
14 1 56 60
15 1 60 63
16 1 63 65
17 1 65 66
18 1 66 68
19 1 68 70
20 1 70 72
21 1 72 76
22 1 76 77
23 1 77 79
24 1 79 83
25 1 83 84
26 1 84 87
27 1 87 90
28 1 90 92
29 1 92 93
30 1 93 95
31 1 95 96
32 1 96 98
33 1 98 99
34 1 99 103
35 1 103 105
36 1 105 109
37 1 121 124
38 1 124 125
39 1 125 127
40 1 127 129
41 1 129 134
42 1 153 155
43 1 155 157
44 1 171 173
45 1 173 175
46 1 175 176
47 1 176 178
48 1 178 181
49 1 181 183
50 1 183 185
51 1 185 189
52 1 189 190
53 1 190 191
54 1 191 193
55 1 193 196
56 2 2 3
57 3 6 7
58 4 8 9
59 5 9 10
60 4 12 13
61 5 13 14
62 4 15 16
63 5 16 17
64 6 20 21
65 3 26 27
66 4 28 29
67 5 29 30
68 6 31 32
69 3 34 35
70 6 36 37
71 2 38 39
72 3 46 47
73 4 48 49
74 5 49 50
75 4 53 54
76 5 54 55
77 2 56 57
78 4 60 61
79 5 61 62
80 7 66 67
81 8 68 69
82 9 70 71
83 2 72 73
84 9 77 78
85 6 79 80
86 4 84 85
87 10 85 86
88 4 87 88
89 5 88 89
90 3 93 94
91 7 96 97
92 6 99 100
93 8 105 106
94 2 111 112
95 8 114 115
96 4 116 117
97 5 117 118
98 8 119 120
99 4 121 122
100 5 122 123
101 11 129 130
102 4 134 135
103 5 135 136
104 3 137 138
105 3 139 140
106 9 143 144
107 12 145 146
108 3 147 148
109 8 149 150
110 9 153 154
111 3 155 156
112 8 157 158
113 7 159 160
114 4 161 162
115 5 162 163
116 4 164 165
117 5 165 166
118 8 167 168
119 7 173 174
120 4 178 179
121 5 179 180
122 12 181 182
123 6 185 186
124 4 193 194
125 5 194 195
126 4 196 197
127 5 197 198
128 4 199 200
129 5 200 201
130 3 204 205
131 4 206 207
132 10 207 208
133 3 209 210
134 2 211 212
135 9 213 214
136 8 218 219
137 9 222 223
138 4 224 225
139 5 225 226
140 4 227 228
141 5 228 229
142 8 233 234
143 3 235 236
144 13 2 4
145 14 4 6
146 14 6 8
147 14 8 11
148 14 11 12
149 14 12 15
150 14 15 18
151 14 18 20
152 14 20 24
153 14 24 26
154 14 26 28
155 13 28 31
156 13 109 111
157 14 111 113
158 14 113 114
159 14 114 116
160 14 116 119
161 13 119 121
162 13 134 137
163 14 137 139
164 14 139 141
165 14 141 143
166 14 143 145
167 14 145 147
168 14 147 149
169 13 149 153
170 13 157 159
171 14 159 161
172 14 161 164
173 14 164 167
174 13 167 171
175 13 196 199
176 14 199 202
177 14 202 204
178 14 204 206
179 14 206 209
180 14 209 211
181 14 211 213
182 14 213 215
183 14 215 217
184 14 217 218
185 14 218 222
186 14 222 224
187 14 224 227
188 14 227 230
189 14 230 231
190 14 231 233
191 13 233 235
192 15 4 5
193 14 18 19
194 16 21 22
195 16 21 23
196 16 22 23
197 15 24 25
198 16 39 40
199 16 39 41
200 16 40 41
201 17 42 43
202 15 44 45
203 16 57 58
204 16 57 59
205 16 58 59
206 17 63 64
207 16 73 74
208 16 73 75
209 16 74 75
210 16 80 81
211 16 80 82
212 16 81 82
213 17 90 91
214 16 100 101
215 16 100 102
216 16 101 102
217 17 103 104
218 16 106 107
219 16 106 108
220 16 107 108
221 17 109 110
222 14 125 126
223 17 127 128
224 16 130 131
225 16 130 132
226 16 131 132
227 16 131 133
228 16 132 133
229 17 141 142
230 16 150 151
231 16 150 152
232 16 151 152
233 16 168 169
234 16 168 170
235 16 169 170
236 14 171 172
237 17 176 177
238 14 183 184
239 16 186 187
240 16 186 188
241 16 187 188
242 14 191 192
243 17 202 203
244 14 215 216
245 16 219 220
246 16 219 221
247 16 220 221
248 17 231 232

Angles

1 1 1 2 4
2 1 2 4 6
3 2 4 6 8
4 2 6 8 11
5 2 8 11 12
6 2 11 12 15
7 2 12 15 18
8 2 15 18 20
9 2 18 20 24
10 2 20 24 26
11 2 24 26 28
12 3 26 28 31
13 3 28 31 33
14 3 31 33 34
15 3 33 34 36
16 3 34 36 38
17 3 36 38 42
18 1 38 42 44
19 1 42 44 46
20 3 44 46 48
21 3 46 48 51
22 3 48 51 52
23 3 51 52 53
24 1 52 53 56
25 1 53 56 60
26 1 56 60 63
27 1 60 63 65
28 4 63 65 66
29 1 65 66 68
30 1 66 68 70
31 3 68 70 72
32 3 70 72 76
33 3 72 76 77
34 3 76 77 79
35 3 77 79 83
36 3 79 83 84
37 3 83 84 87
38 3 84 87 90
39 3 87 90 92
40 3 90 92 93
41 3 92 93 95
42 1 93 95 96
43 3 95 96 98
44 3 96 98 99
45 3 98 99 103
46 1 99 103 105
47 1 103 105 109
48 1 105 109 111
49 1 109 111 113
50 2 111 113 114
51 2 113 114 116
52 2 114 116 119
53 1 116 119 121
54 1 119 121 124
55 1 121 124 125
56 1 124 125 127
57 1 125 127 129
58 1 127 129 134
59 1 129 134 137
60 4 134 137 139
61 2 137 139 141
62 2 139 141 143
63 2 141 143 145
64 2 143 145 147
65 2 145 147 149
66 3 147 149 153
67 3 149 153 155
68 3 153 155 157
69 3 155 157 159
70 5 157 159 161
71 5 159 161 164
72 2 161 164 167
73 4 164 167 171
74 4 167 171 173
75 3 171 173 175
76 3 173 175 176
77 3 175 176 178
78 1 176 178 181
79 1 178 181 183
80 1 181 183 185
81 1 183 185 189
82 1 185 189 190
83 1 189 190 191
84 1 190 191 193
85 1 191 193 196
86 1 193 196 199
87 4 196 199 202
88 2 199 202 204
89 2 202 204 206
90 2 204 206 209
91 2 206 209 211
92 2 209 211 213
93 2 211 213 215
94 2 213 215 217
95 2 215 217 218
96 2 217 218 222
97 2 218 222 224
98 2 222 224 227
99 2 224 227 230
100 2 227 230 231
101 2 230 231 233
102 1 231 233 235
103 6 1 2 3
104 6 2 4 5
105 6 4 6 7
106 6 6 8 9
107 6 11 12 13
108 6 12 15 16
109 6 15 18 19
110 6 18 20 21
111 6 20 24 25
112 6 24 26 27
113 6 26 28 29
114 6 28 31 32
115 6 33 34 35
116 6 34 36 37
117 6 36 38 39
118 6 38 42 43
119 6 42 44 45
120 6 44 46 47
121 6 46 48 49
122 6 52 53 54
123 6 53 56 57
124 6 56 60 61
125 6 60 63 64
126 6 65 66 67
127 6 66 68 69
128 6 68 70 71
129 6 70 72 73
130 6 76 77 78
131 6 77 79 80
132 6 83 84 85
133 6 84 87 88
134 6 87 90 91
135 6 92 93 94
136 6 95 96 97
137 6 98 99 100
138 6 99 103 104
139 6 103 105 106
140 6 105 109 110
141 6 109 111 112
142 6 113 114 115
143 6 114 116 117
144 6 116 119 120
145 6 119 121 122
146 6 124 125 126
147 6 125 127 128
148 6 127 129 130
149 6 129 134 135
150 6 134 137 138
151 6 137 139 140
152 6 139 141 142
153 6 141 143 144
154 6 143 145 146
155 6 145 147 148
156 6 147 149 150
157 6 149 153 154
158 6 153 155 156
159 6 155 157 158
160 6 157 159 160
161 6 159 161 162
162 6 161 164 165
163 6 164 167 168
164 6 167 171 172
165 6 171 173 174
166 6 175 176 177
167 6 176 178 179
168 6 178 181 182
169 6 181 183 184
170 6 183 185 186
171 6 190 191 192
172 6 191 193 194
173 6 193 196 197
174 6 196 199 200
175 6 199 202 203
176 6 202 204 205
177 6 204 206 207
178 6 206 209 210
179 6 209 211 212
180 6 211 213 214
181 6 213 215 216
182 6 217 218 219
183 6 218 222 223
184 6 222 224 225
185 6 224 227 228
186 6 230 231 232
187 6 231 233 234
188 6 233 235 236
189 7 8 9 10
190 7 12 13 14
191 7 15 16 17
192 8 20 21 22
193 8 20 21 23
194 7 28 29 30
195 8 38 39 40
196 8 38 39 41
197 7 48 49 50
198 7 53 54 55
199 8 56 57 58
200 8 56 57 59
201 7 60 61 62
202 8 72 73 74
203 8 72 73 75
204 8 79 80 81
205 8 79 80 82
206 7 84 85 86
207 7 87 88 89
208 8 99 100 101
209 8 99 100 102
210 8 105 106 107
211 8 105 106 108
212 7 116 117 118
213 7 121 122 123
214 9 129 130 131
215 10 129 130 132
216 7 134 135 136
217 8 149 150 151
218 8 149 150 152
219 7 161 162 163
220 7 164 165 166
221 8 167 168 169
222 8 167 168 170
223 7 178 179 180
224 8 185 186 187
225 8 185 186 188
226 7 193 194 195
227 7 196 197 198
228 7 199 200 201
229 7 206 207 208
230 8 218 219 220
231 8 218 219 221
232 7 224 225 226
233 7 227 228 229

Dihedrals

1 1 4 6 8 11
2 1 6 8 11 12
3 1 8 11 12 15
4 1 11 12 15 18
5 1 12 15 18 20
6 1 15 18 20 24
7 1 18 20 24 26
8 1 20 24 26 28
9 1 111 113 114 116
10 1 113 114 116 119
11 1 137 139 141 143
12 1 139 141 143 145
13 1 141 143 145 147
14 1 143 145 147 149
15 1 159 161 164 167
16 1 199 202 204 206
17 1 202 204 206 209
18 1 204 206 209 211
19 1 206 209 211 213
20 1 209 211 213 215
21 1 211 213 215 217
22 1 213 215 217 218
23 1 215 217 218 222
24 1 217 218 222 224
25 1 218 222 224 227
26 1 222 224 227 230
27 1 224 227 230 231
28 1 227 230 231 233

Impropers

1 1 20 22 23 21
2 1 38 40 41 39
3 1 56 58 59 57
4 1 72 74 75 73
5 1 79 81 82 80
6 1 99 101 102 100
7 1 105 107 108 106
8 1 129 131 132 130
9 2 130 131 133 132
10 1 149 151 152 150
11 1 167 169 170 168
12 1 185 187 188 186
13 1 218 220 221 219

