comment

236 atoms
248 bonds
233 angles
28 dihedrals
13 impropers

17 atom types
17 bond types
10 angle types
1 dihedral types
2 improper types

-40.5 40.5 xlo xhi
-40.5 40.5 ylo yhi
-190.0 190.0 zlo zhi

Masses

1 72.0
2 72.0
3 72.0
4 72.0
5 72.0
6 72.0
7 72.0
8 72.0
9 72.0
10 45.0
11 72.0
12 72.0
13 72.0
14 45.0
15 45.0
16 72.0
17 45.0

PairIJ Coeffs

1 1 1.19503 4.699999999999999
1 2 1.3384336 4.699999999999999
1 3 1.3384336 4.699999999999999
1 4 0.956024 4.699999999999999
1 5 0.478012 4.699999999999999
1 6 0.5497137999999999 4.699999999999999
1 7 0.836521 4.699999999999999
1 8 0.478012 4.699999999999999
1 9 1.19503 4.699999999999999
1 10 0.7409186 4.699999999999999
1 11 1.3384336 4.699999999999999
1 12 1.19503 4.699999999999999
1 13 0.7409186 4.699999999999999
1 14 0.6453162 4.699999999999999
1 15 1.19503 4.699999999999999
1 16 1.19503 4.699999999999999
1 17 0.956024 4.699999999999999
2 2 1.3384336 4.699999999999999
2 3 1.3384336 4.699999999999999
2 4 1.19503 4.699999999999999
2 5 0.5497137999999999 4.699999999999999
2 6 0.6453162 4.699999999999999
2 7 0.836521 4.699999999999999
2 8 0.478012 4.699999999999999
2 9 1.19503 4.699999999999999
2 10 0.7409186 4.699999999999999
2 11 1.3384336 4.699999999999999
2 12 1.19503 4.699999999999999
2 13 0.7409186 4.699999999999999
2 14 0.6453162 4.699999999999999
2 15 1.3384336 4.699999999999999
2 16 1.3384336 4.699999999999999
2 17 1.19503 4.699999999999999
3 3 1.19503 4.699999999999999
3 4 1.19503 4.699999999999999
3 5 0.478012 4.699999999999999
3 6 0.5497137999999999 4.699999999999999
3 7 0.836521 4.699999999999999
3 8 0.478012 4.699999999999999
3 9 0.956024 4.699999999999999
3 10 0.7409186 4.699999999999999
3 11 1.3384336 4.699999999999999
3 12 1.19503 4.699999999999999
3 13 0.7409186 4.699999999999999
3 14 0.6453162 4.699999999999999
3 15 1.19503 4.699999999999999
3 16 1.19503 4.699999999999999
3 17 1.19503 4.699999999999999
4 4 0.956024 4.699999999999999
4 5 0.6453162 4.699999999999999
4 6 0.6453162 4.699999999999999
4 7 0.836521 4.699999999999999
4 8 0.6453162 4.699999999999999
4 9 1.075527 4.699999999999999
4 10 0.836521 4.699999999999999
4 11 0.956024 4.699999999999999
4 12 1.075527 4.699999999999999
4 13 0.836521 4.699999999999999
4 14 0.7409186 4.699999999999999
4 15 1.075527 4.699999999999999
4 16 1.075527 4.699999999999999
4 17 0.956024 4.699999999999999
5 5 0.836521 4.699999999999999
5 6 0.836521 4.699999999999999
5 7 0.7409186 4.699999999999999
5 8 0.836521 4.699999999999999
5 9 0.6453162 4.699999999999999
5 10 0.7409186 4.699999999999999
5 11 0.5497137999999999 4.699999999999999
5 12 0.6453162 4.699999999999999
5 13 0.7409186 4.699999999999999
5 14 0.7409186 4.699999999999999
5 15 0.7409186 4.699999999999999
5 16 0.7409186 4.699999999999999
5 17 0.6453162 4.699999999999999
6 6 0.836521 4.699999999999999
6 7 0.836521 4.699999999999999
6 8 0.836521 4.699999999999999
6 9 0.6453162 4.699999999999999
6 10 0.836521 4.699999999999999
6 11 0.6453162 4.699999999999999
6 12 0.6453162 4.699999999999999
6 13 0.836521 4.699999999999999
6 14 0.836521 4.699999999999999
6 15 0.836521 4.699999999999999
6 16 0.836521 4.699999999999999
6 17 0.6453162 4.699999999999999
7 7 0.836521 4.699999999999999
7 8 0.6453162 4.699999999999999
7 9 0.836521 4.699999999999999
7 10 0.836521 4.699999999999999
7 11 0.836521 4.699999999999999
7 12 0.836521 4.699999999999999
7 13 0.836521 4.699999999999999
7 14 0.836521 4.699999999999999
7 15 0.956024 4.699999999999999
7 16 0.956024 4.699999999999999
7 17 0.836521 4.699999999999999
8 8 0.836521 4.699999999999999
8 9 0.6453162 4.699999999999999
8 10 0.7409186 4.699999999999999
8 11 0.478012 4.699999999999999
8 12 0.6453162 4.699999999999999
8 13 0.7409186 4.699999999999999
8 14 0.7409186 4.699999999999999
8 15 0.6453162 4.699999999999999
8 16 0.6453162 4.699999999999999
8 17 0.6453162 4.699999999999999
9 9 0.956024 4.699999999999999
9 10 0.836521 4.699999999999999
9 11 0.956024 4.699999999999999
9 12 1.075527 4.699999999999999
9 13 0.836521 4.699999999999999
9 14 0.7409186 4.699999999999999
9 15 1.075527 4.699999999999999
9 16 1.075527 4.699999999999999
9 17 1.075527 4.699999999999999
10 10 0.62739075 4.3
10 11 0.7409186 4.699999999999999
10 12 0.836521 4.699999999999999
10 13 0.836521 4.699999999999999
10 14 0.62739075 4.3
10 15 0.62739075 4.3
10 16 0.836521 4.699999999999999
10 17 0.62739075 4.3
11 11 1.19503 4.699999999999999
11 12 0.956024 4.699999999999999
11 13 0.7409186 4.699999999999999
11 14 0.6453162 4.699999999999999
11 15 1.075527 4.699999999999999
11 16 1.075527 4.699999999999999
11 17 0.956024 4.699999999999999
12 12 1.075527 4.699999999999999
12 13 0.836521 4.699999999999999
12 14 0.7409186 4.699999999999999
12 15 1.075527 4.699999999999999
12 16 1.075527 4.699999999999999
12 17 1.075527 4.699999999999999
13 13 0.836521 4.699999999999999
13 14 0.836521 4.699999999999999
13 15 0.836521 4.699999999999999
13 16 0.836521 4.699999999999999
13 17 0.836521 4.699999999999999
14 14 0.62739075 4.3
14 15 0.62739075 4.3
14 16 0.836521 4.699999999999999
14 17 0.5556889500000001 4.3
15 15 0.80664525 4.3
15 16 1.075527 4.699999999999999
15 17 0.80664525 4.3
16 16 1.075527 4.699999999999999
16 17 1.075527 4.699999999999999
17 17 0.7170179999999999 4.3

Bond Coeffs

1 1.4937875 3.5
2 8.962725 3.2
3 5.97515 4.0
4 5.97515 3.3000000000000003
5 5.97515 2.8000000000000003
6 8.962725 3.1
7 8.962725 3.0
8 5.97515 3.2
9 8.962725 3.3000000000000003
10 5.97515 3.4000000000000004
11 5.97515 3.0
12 2.987575 4.0
13 11.9503 3.3000000000000003
14 11.9503 3.1
15 11.9503 2.6500000000000004
16 11.9503 2.7
17 11.9503 2.6

Angle Coeffs

1 2.39006 127
2 83.6521 96
3 2.39006 100
4 2.39006 130
5 11.9503 98
6 2.987575 100
7 2.987575 180
8 5.97515 150
9 5.97515 210
10 5.97515 90

Dihedral Coeffs

1 95.6024 1 -120 0

Improper Coeffs

1 5.97515 0
2 23.9006 0

Atoms

1 1 1 1.0000 1.2549999 -0.027 -48.818
2 1 2 0.0000 0.107928 0.129723 -50.9322
3 1 3 -1.0000 -1.03025 -0.775169 -53.065
4 1 4 0.0000 1.9265699 2.11628 -54.344803
5 1 5 0.0000 2.68864 0.135581 -55.8611
6 1 4 0.0000 1.5547 5.21594 -54.5739
7 1 3 -1.0000 -1.59348 6.27517 -56.0873
8 1 4 0.0000 4.17386 5.98446 -55.8947
9 1 6 0.0000 7.1150103 4.54379 -55.7033
10 1 1 1.0000 8.11385 2.33947 -57.0426
11 1 4 0.0000 3.80561 4.82912 -59.070602
12 1 7 0.0000 1.6825999 6.88699 -59.9161
13 1 6 0.0000 -1.70617 6.4234695 -61.020096
14 1 1 1.0000 -4.21877 6.0100102 -59.9115
15 1 7 0.0000 3.52598 9.53108 -59.3704
16 1 6 0.0000 2.19614 11.2473 -56.6831
17 1 1 1.0000 0.576787 10.2537 -54.6933
18 1 7 0.0000 5.88517 8.83659 -61.465996
19 1 8 0.0000 8.44941 7.29563 -60.4427
20 1 9 0.0000 4.34151 9.40008 -64.1827
21 1 10 0.0000 5.01188 9.225 -67.5103
22 1 10 0.0000 4.64954 9.95824 -70.2945
23 1 10 0.0000 6.78277 8.497 -69.4812
24 1 9 0.0000 3.47407 12.4649 -63.7228
25 1 5 0.0000 1.5507901 14.0776005 -63.9776
26 1 9 0.0000 6.48066 13.844 -63.0334
27 1 11 0.0000 5.85222 17.237099 -64.8581
28 1 9 0.0000 7.91389 12.716399 -65.7397
29 1 6 0.0000 9.364389 10.174299 -65.469696
30 1 1 1.0000 11.2815 8.96029 -64.8508
31 1 12 0.0000 6.85085 13.9426 -68.8067
32 1 13 0.0000 8.84247 14.317101 -71.1593
33 1 7 0.0000 3.748 14.4618 -68.5362
34 1 12 0.0000 0.855595 12.268 -68.2792
35 1 11 0.0000 -1.34158 15.8117 -68.9261
36 1 12 0.0000 -0.206193 12.1008005 -71.7389
37 1 13 0.0000 -1.04276 15.465601 -71.620895
38 1 2 0.0000 -0.391783 9.0186205 -71.4688
39 1 14 0.0000 1.9737101 7.66392 -72.5612
40 1 15 0.0000 3.72108 5.79756 -72.4826
41 1 15 0.0000 4.18051 8.05798 -73.9776
42 1 2 0.0000 -3.21298 7.93165 -71.5103
43 1 16 0.0000 -4.68728 8.11329 -73.3583
44 1 2 0.0000 -4.2803802 7.21807 -68.5063
45 1 5 0.0000 -3.29483 5.0907803 -67.8026
46 1 2 0.0000 -6.91338 6.5396204 -64.7015
47 1 3 -1.0000 -5.8382397 9.8156395 -62.856003
48 1 12 0.0000 -10.9324 4.28024 -64.133804
49 1 6 0.0000 -12.027399 2.42772 -61.3059
50 1 1 1.0000 -11.552401 1.79484 -58.3281
51 1 12 0.0000 -12.9158 5.39644 -66.6091
52 1 2 0.0000 -9.83095 7.86325 -67.343895
53 1 2 0.0000 -9.98475 10.722199 -66.1975
54 1 6 0.0000 -10.788899 9.27554 -62.8718
55 1 1 1.0000 -9.35908 7.82497 -60.6345
56 1 2 0.0000 -8.83062 12.5764 -69.604004
57 1 14 0.0000 -10.1005 10.4463005 -71.8325
58 1 15 0.0000 -9.65609 8.08665 -72.1007
59 1 15 0.0000 -11.943199 8.42321 -71.954895
60 1 2 0.0000 -5.7906904 12.740001 -71.9947
61 1 6 0.0000 -4.1294103 12.2619 -69.228806
62 1 1 1.0000 -4.15928 12.2762 -66.5507
63 1 2 0.0000 -3.16638 12.7132 -75.6233
64 1 16 0.0000 -4.3829 14.8991 -76.502
65 1 2 0.0000 -0.53639 10.2162 -76.3918
66 1 11 0.0000 -0.14863999 7.1186695 -76.7763
67 1 6 0.0000 1.25497 6.36261 -79.172905
68 1 2 0.0000 -1.53623 4.76649 -74.8486
69 1 2 0.0000 -4.47479 3.81279 -76.6222
70 1 2 0.0000 -1.9830201 2.09939 -72.4463
71 1 8 0.0000 0.0910997 2.4204 -70.1584
72 1 12 0.0000 -6.0553403 2.6199799 -74.2821
73 1 14 0.0000 -7.0179996 3.92626 -71.6297
74 1 15 0.0000 -9.49068 3.7686398 -70.694595
75 1 15 0.0000 -7.44637 3.29674 -68.8993
76 1 12 0.0000 -7.6427402 -1.47473 -73.4945
77 1 2 0.0000 -5.58183 -2.2836199 -70.7993
78 1 8 0.0000 -3.9433198 -0.637641 -68.6634
79 1 12 0.0000 -5.90592 -5.11827 -70.2188
80 1 10 0.0000 -5.42659 -6.20364 -67.434906
81 1 10 0.0000 -4.138 -5.2453704 -65.3708
82 1 10 0.0000 -6.21628 -6.72504 -64.8177
83 1 12 0.0000 -5.1686 -8.02829 -72.825195
84 1 2 0.0000 -5.3667803 -7.1722503 -76.5561
85 1 7 0.0000 -3.6532102 -4.00079 -75.6987
86 1 1 1.0000 -2.78757 -1.16498 -76.185295
87 1 2 0.0000 -3.1195598 -7.22943 -79.4906
88 1 6 0.0000 -0.677055 -8.96583 -80.2234
89 1 1 1.0000 0.28510702 -11.2775 -80.37309
90 1 12 0.0000 -1.87425 -3.94289 -80.080605
91 1 16 0.0000 0.326576 -3.7789898 -78.602
92 1 12 0.0000 -5.0650697 -3.30701 -81.0302
93 1 2 0.0000 -6.5822897 -1.0222499 -79.3891
94 1 11 0.0000 -8.67058 -3.6630201 -77.689804
95 1 11 0.0000 -8.27854 1.40472 -79.0348
96 1 7 0.0000 -10.2682 4.2561097 -76.2956
97 1 6 0.0000 -12.0295 2.38303 -74.770195
98 1 12 0.0000 -8.51185 6.80163 -77.221
99 1 2 0.0000 -8.4016905 5.30305 -81.0643
100 1 10 0.0000 -7.51374 7.77343 -82.769806
101 1 10 0.0000 -5.71344 7.94137 -84.85541
102 1 10 0.0000 -7.03628 10.0388 -84.2118
103 1 2 0.0000 -5.1039305 3.4872901 -81.915504
104 1 16 0.0000 -5.5907702 1.89309 -83.860596
105 1 2 0.0000 -1.9566201 5.69165 -82.5618
106 1 14 0.0000 -2.81068 8.57932 -81.4265
107 1 14 0.0000 -4.67642 8.89728 -79.6312
108 1 15 0.0000 -3.63399 11.217199 -81.00761
109 1 2 0.0000 -1.34442 4.86631 -85.682205
110 1 16 0.0000 -2.22069 5.706 -87.815506
111 1 4 0.0000 1.3824401 3.2171402 -85.7224
112 1 3 -1.0000 2.5033 1.25665 -88.14
113 1 7 0.0000 2.4293098 2.43887 -82.8693
114 1 12 0.0000 -0.296913 0.89950395 -81.9569
115 1 2 0.0000 0.0233716 1.43505 -78.620804
116 1 12 0.0000 -0.228201 -1.75158 -83.965996
117 1 6 0.0000 -2.228 -1.06667 -86.4715
118 1 1 1.0000 -2.06053 0.69854605 -88.9348
119 1 9 0.0000 2.5333 -2.9678602 -83.204
120 1 2 0.0000 4.34421 -2.9491901 -86.3074
121 1 2 0.0000 4.66764 -4.83277 -81.2452
122 1 6 0.0000 8.24345 -4.67319 -80.9079
123 1 1 1.0000 10.3837 -4.66659 -79.1241
124 1 2 0.0000 4.4635 -7.5435696 -79.6906
125 1 2 0.0000 2.94387 -8.11064 -77.0041
126 1 8 0.0000 2.46696 -11.0669 -76.3886
127 1 2 0.0000 0.0161871 -7.8908496 -74.2244
128 1 16 0.0000 -1.27522 -10.1192 -75.0007
129 1 2 0.0000 -0.749093 -8.17697 -70.0339
130 1 14 0.0000 -0.772582 -4.86182 -70.270905
131 1 17 0.0000 0.0304933 -2.73986 -71.642296
132 1 10 0.0000 0.316746 -4.92411 -72.7526
133 1 10 0.0000 1.0249699 -2.70483 -73.7441
134 1 2 0.0000 0.36677402 -8.69961 -67.3776
135 1 6 0.0000 2.8948302 -10.529099 -67.7005
136 1 1 1.0000 3.9398198 -11.342501 -65.1075
137 1 4 0.0000 2.5658102 -6.29467 -66.103
138 1 3 -1.0000 5.1209 -7.4924397 -62.984802
139 1 4 0.0000 5.2247 -7.48795 -67.5138
140 1 3 -1.0000 6.3656096 -7.98562 -63.5328
141 1 4 0.0000 4.61888 -6.13725 -70.5859
142 1 16 0.0000 4.45453 -8.24903 -72.1845
143 1 12 0.0000 4.6486 -3.10457 -69.3331
144 1 8 0.0000 3.60739 -0.203569 -70.1501
145 1 9 0.0000 7.6550903 -3.0889897 -68.516
146 1 13 0.0000 10.2794 -6.0134897 -66.5692
147 1 9 0.0000 8.86734 -3.20912 -71.7491
148 1 3 -1.0000 11.8661 -4.11757 -74.3878
149 1 9 0.0000 7.55073 -0.523407 -72.8094
150 1 14 0.0000 5.14782 0.908893 -74.3711
151 1 14 0.0000 4.5476 2.8262498 -75.9699
152 1 15 0.0000 2.69493 1.42232 -74.8474
153 1 12 0.0000 9.41027 1.46 -70.9682
154 1 8 0.0000 6.9526396 3.1656 -69.8875
155 1 12 0.0000 12.32 0.845403 -72.183395
156 1 3 -1.0000 16.3264 0.0389912 -70.8184
157 1 2 0.0000 13.0055 3.21386 -74.097
158 1 2 0.0000 16.2278 3.7105598 -74.404
159 1 7 0.0000 10.0868 3.5545 -75.5646
160 1 6 0.0000 8.54995 5.4748497 -74.1195
161 1 12 0.0000 11.2316 3.3698602 -78.5752
162 1 6 0.0000 12.894 6.17758 -79.218506
163 1 1 1.0000 12.1775 8.27861 -81.3011
164 1 12 0.0000 11.424299 -0.024252301 -78.5408
165 1 6 0.0000 14.643001 -0.374921 -77.7665
166 1 1 1.0000 15.7432995 -1.2673999 -75.2971
167 1 12 0.0000 8.33545 -0.699929 -77.778305
168 1 14 0.0000 6.93703 -3.02205 -76.295
169 1 14 0.0000 4.83628 -3.52171 -75.2148
170 1 15 0.0000 6.94335 -5.27559 -75.4181
171 1 2 0.0000 6.17333 0.667897 -79.7736
172 1 8 0.0000 4.10419 -0.965992 -79.0528
173 1 7 0.0000 6.70299 -0.100625 -82.9543
174 1 6 0.0000 8.55336 -0.78195995 -85.265594
175 1 12 0.0000 9.0595 3.7484899 -82.934
176 1 2 0.0000 6.41259 4.36378 -79.879295
177 1 16 0.0000 7.33315 6.47362 -78.9041
178 1 2 0.0000 4.81606 6.79327 -83.1569
179 1 6 0.0000 6.7796097 5.0239096 -85.393
180 1 1 1.0000 6.3733 3.40633 -87.6085
181 1 2 0.0000 2.48401 9.90645 -83.6465
182 1 13 0.0000 2.0487099 8.464581 -87.252304
183 1 2 0.0000 2.32141 11.322499 -80.908806
184 1 8 0.0000 1.38464 14.1658 -80.6522
185 1 2 0.0000 4.9351 11.088 -77.5417
186 1 10 0.0000 3.14736 13.540899 -76.170105
187 1 10 0.0000 4.06817 15.773601 -75.198204
188 1 10 0.0000 1.30171 15.5053 -76.3514
189 1 11 0.0000 7.6785703 10.4602 -76.7065
190 1 2 0.0000 8.91068 10.0208 -73.7508
191 1 2 0.0000 11.0243 7.71237 -71.2864
192 1 8 0.0000 12.7446995 10.128699 -70.237495
193 1 2 0.0000 11.6285 5.01423 -68.3281
194 1 6 0.0000 14.3747 4.89443 -69.5155
195 1 1 1.0000 16.8863 4.14439 -68.6832
196 1 2 0.0000 15.3563 1.31661 -65.9835
197 1 6 0.0000 17.8773 2.64451 -63.9579
198 1 1 1.0000 17.2071 3.64777 -61.407898
199 1 4 0.0000 14.6558 -0.954471 -63.693398
200 1 6 0.0000 11.707 -3.5391302 -62.3349
201 1 1 1.0000 9.01482 -4.41072 -61.5947
202 1 4 0.0000 12.8708 0.997479 -61.6304
203 1 16 0.0000 11.8836 0.166397 -59.2062
204 1 4 0.0000 12.0581 3.15992 -63.841
205 1 3 -1.0000 14.731199 6.11267 -64.3389
206 1 4 0.0000 10.2625 1.1556901 -65.6109
207 1 7 0.0000 11.8573 -1.12157 -67.6131
208 1 1 1.0000 13.275 -3.44981 -69.8863
209 1 7 0.0000 8.77022 -0.080362596 -63.513496
210 1 3 -1.0000 6.7215004 -1.20823 -59.444397
211 1 7 0.0000 7.2213697 2.35384 -62.417797
212 1 3 -1.0000 6.5328097 -0.84798 -59.7613
213 1 7 0.0000 5.6569805 2.87574 -65.2144
214 1 8 0.0000 7.3516603 5.66047 -65.5829
215 1 7 0.0000 4.01797 0.00772248 -64.9557
216 1 8 0.0000 5.23287 -2.61814 -64.658295
217 1 13 0.0000 2.60567 0.879465 -62.244904
218 1 7 0.0000 0.743204 2.95191 -63.612198
219 1 14 0.0000 1.13247 5.6923003 -65.294
220 1 14 0.0000 2.11611 6.01618 -67.928604
221 1 15 0.0000 0.553034 7.6796103 -66.778496
222 1 7 0.0000 -0.721874 0.66032 -65.7467
223 1 8 0.0000 0.605008 -2.18648 -67.0392
224 1 7 0.0000 -1.76615 -1.10263 -63.1081
225 1 6 0.0000 0.678049 -3.34787 -62.244
226 1 1 1.0000 3.11671 -3.9537501 -60.5806
227 1 9 0.0000 -3.3400602 1.2544299 -61.844402
228 1 6 0.0000 -2.8380098 1.46294 -58.6697
229 1 1 1.0000 -3.8228102 2.24508 -55.7794
230 1 7 0.0000 -5.2674503 2.10695 -64.2857
231 1 9 0.0000 -7.17217 -0.678088 -64.426796
232 1 16 0.0000 -8.32561 -1.20111 -66.8079
233 1 9 0.0000 -8.0912895 -0.4761 -61.477898
234 1 2 0.0000 -6.5608797 -2.95441 -59.6516
235 1 3 -1.0000 -7.5015597 2.9726698 -60.4668
236 1 3 -1.0000 -7.8482504 4.68871 -57.4287

Bonds

1 1 1 2
2 1 31 33
3 1 33 34
4 1 34 36
5 1 36 38
6 1 38 42
7 1 42 44
8 1 44 46
9 1 46 48
10 1 48 51
11 1 51 52
12 1 52 53
13 1 53 56
14 1 56 60
15 1 60 63
16 1 63 65
17 1 65 66
18 1 66 68
19 1 68 70
20 1 70 72
21 1 72 76
22 1 76 77
23 1 77 79
24 1 79 83
25 1 83 84
26 1 84 87
27 1 87 90
28 1 90 92
29 1 92 93
30 1 93 95
31 1 95 96
32 1 96 98
33 1 98 99
34 1 99 103
35 1 103 105
36 1 105 109
37 1 121 124
38 1 124 125
39 1 125 127
40 1 127 129
41 1 129 134
42 1 153 155
43 1 155 157
44 1 171 173
45 1 173 175
46 1 175 176
47 1 176 178
48 1 178 181
49 1 181 183
50 1 183 185
51 1 185 189
52 1 189 190
53 1 190 191
54 1 191 193
55 1 193 196
56 2 2 3
57 3 6 7
58 4 8 9
59 5 9 10
60 4 12 13
61 5 13 14
62 4 15 16
63 5 16 17
64 6 20 21
65 3 26 27
66 4 28 29
67 5 29 30
68 6 31 32
69 3 34 35
70 6 36 37
71 2 38 39
72 3 46 47
73 4 48 49
74 5 49 50
75 4 53 54
76 5 54 55
77 2 56 57
78 4 60 61
79 5 61 62
80 7 66 67
81 8 68 69
82 9 70 71
83 2 72 73
84 9 77 78
85 6 79 80
86 4 84 85
87 10 85 86
88 4 87 88
89 5 88 89
90 3 93 94
91 7 96 97
92 6 99 100
93 8 105 106
94 2 111 112
95 8 114 115
96 4 116 117
97 5 117 118
98 8 119 120
99 4 121 122
100 5 122 123
101 11 129 130
102 4 134 135
103 5 135 136
104 3 137 138
105 3 139 140
106 9 143 144
107 12 145 146
108 3 147 148
109 8 149 150
110 9 153 154
111 3 155 156
112 8 157 158
113 7 159 160
114 4 161 162
115 5 162 163
116 4 164 165
117 5 165 166
118 8 167 168
119 7 173 174
120 4 178 179
121 5 179 180
122 12 181 182
123 6 185 186
124 4 193 194
125 5 194 195
126 4 196 197
127 5 197 198
128 4 199 200
129 5 200 201
130 3 204 205
131 4 206 207
132 10 207 208
133 3 209 210
134 2 211 212
135 9 213 214
136 8 218 219
137 9 222 223
138 4 224 225
139 5 225 226
140 4 227 228
141 5 228 229
142 8 233 234
143 3 235 236
144 13 2 4
145 14 4 6
146 14 6 8
147 14 8 11
148 14 11 12
149 14 12 15
150 14 15 18
151 14 18 20
152 14 20 24
153 14 24 26
154 14 26 28
155 13 28 31
156 13 109 111
157 14 111 113
158 14 113 114
159 14 114 116
160 14 116 119
161 13 119 121
162 13 134 137
163 14 137 139
164 14 139 141
165 14 141 143
166 14 143 145
167 14 145 147
168 14 147 149
169 13 149 153
170 13 157 159
171 14 159 161
172 14 161 164
173 14 164 167
174 13 167 171
175 13 196 199
176 14 199 202
177 14 202 204
178 14 204 206
179 14 206 209
180 14 209 211
181 14 211 213
182 14 213 215
183 14 215 217
184 14 217 218
185 14 218 222
186 14 222 224
187 14 224 227
188 14 227 230
189 14 230 231
190 14 231 233
191 13 233 235
192 15 4 5
193 14 18 19
194 16 21 22
195 16 21 23
196 16 22 23
197 15 24 25
198 16 39 40
199 16 39 41
200 16 40 41
201 17 42 43
202 15 44 45
203 16 57 58
204 16 57 59
205 16 58 59
206 17 63 64
207 16 73 74
208 16 73 75
209 16 74 75
210 16 80 81
211 16 80 82
212 16 81 82
213 17 90 91
214 16 100 101
215 16 100 102
216 16 101 102
217 17 103 104
218 16 106 107
219 16 106 108
220 16 107 108
221 17 109 110
222 14 125 126
223 17 127 128
224 16 130 131
225 16 130 132
226 16 131 132
227 16 131 133
228 16 132 133
229 17 141 142
230 16 150 151
231 16 150 152
232 16 151 152
233 16 168 169
234 16 168 170
235 16 169 170
236 14 171 172
237 17 176 177
238 14 183 184
239 16 186 187
240 16 186 188
241 16 187 188
242 14 191 192
243 17 202 203
244 14 215 216
245 16 219 220
246 16 219 221
247 16 220 221
248 17 231 232

Angles

1 1 1 2 4
2 1 2 4 6
3 2 4 6 8
4 2 6 8 11
5 2 8 11 12
6 2 11 12 15
7 2 12 15 18
8 2 15 18 20
9 2 18 20 24
10 2 20 24 26
11 2 24 26 28
12 3 26 28 31
13 3 28 31 33
14 3 31 33 34
15 3 33 34 36
16 3 34 36 38
17 3 36 38 42
18 1 38 42 44
19 1 42 44 46
20 3 44 46 48
21 3 46 48 51
22 3 48 51 52
23 3 51 52 53
24 1 52 53 56
25 1 53 56 60
26 1 56 60 63
27 1 60 63 65
28 4 63 65 66
29 1 65 66 68
30 1 66 68 70
31 3 68 70 72
32 3 70 72 76
33 3 72 76 77
34 3 76 77 79
35 3 77 79 83
36 3 79 83 84
37 3 83 84 87
38 3 84 87 90
39 3 87 90 92
40 3 90 92 93
41 3 92 93 95
42 1 93 95 96
43 3 95 96 98
44 3 96 98 99
45 3 98 99 103
46 1 99 103 105
47 1 103 105 109
48 1 105 109 111
49 1 109 111 113
50 2 111 113 114
51 2 113 114 116
52 2 114 116 119
53 1 116 119 121
54 1 119 121 124
55 1 121 124 125
56 1 124 125 127
57 1 125 127 129
58 1 127 129 134
59 1 129 134 137
60 4 134 137 139
61 2 137 139 141
62 2 139 141 143
63 2 141 143 145
64 2 143 145 147
65 2 145 147 149
66 3 147 149 153
67 3 149 153 155
68 3 153 155 157
69 3 155 157 159
70 5 157 159 161
71 5 159 161 164
72 2 161 164 167
73 4 164 167 171
74 4 167 171 173
75 3 171 173 175
76 3 173 175 176
77 3 175 176 178
78 1 176 178 181
79 1 178 181 183
80 1 181 183 185
81 1 183 185 189
82 1 185 189 190
83 1 189 190 191
84 1 190 191 193
85 1 191 193 196
86 1 193 196 199
87 4 196 199 202
88 2 199 202 204
89 2 202 204 206
90 2 204 206 209
91 2 206 209 211
92 2 209 211 213
93 2 211 213 215
94 2 213 215 217
95 2 215 217 218
96 2 217 218 222
97 2 218 222 224
98 2 222 224 227
99 2 224 227 230
100 2 227 230 231
101 2 230 231 233
102 1 231 233 235
103 6 1 2 3
104 6 2 4 5
105 6 4 6 7
106 6 6 8 9
107 6 11 12 13
108 6 12 15 16
109 6 15 18 19
110 6 18 20 21
111 6 20 24 25
112 6 24 26 27
113 6 26 28 29
114 6 28 31 32
115 6 33 34 35
116 6 34 36 37
117 6 36 38 39
118 6 38 42 43
119 6 42 44 45
120 6 44 46 47
121 6 46 48 49
122 6 52 53 54
123 6 53 56 57
124 6 56 60 61
125 6 60 63 64
126 6 65 66 67
127 6 66 68 69
128 6 68 70 71
129 6 70 72 73
130 6 76 77 78
131 6 77 79 80
132 6 83 84 85
133 6 84 87 88
134 6 87 90 91
135 6 92 93 94
136 6 95 96 97
137 6 98 99 100
138 6 99 103 104
139 6 103 105 106
140 6 105 109 110
141 6 109 111 112
142 6 113 114 115
143 6 114 116 117
144 6 116 119 120
145 6 119 121 122
146 6 124 125 126
147 6 125 127 128
148 6 127 129 130
149 6 129 134 135
150 6 134 137 138
151 6 137 139 140
152 6 139 141 142
153 6 141 143 144
154 6 143 145 146
155 6 145 147 148
156 6 147 149 150
157 6 149 153 154
158 6 153 155 156
159 6 155 157 158
160 6 157 159 160
161 6 159 161 162
162 6 161 164 165
163 6 164 167 168
164 6 167 171 172
165 6 171 173 174
166 6 175 176 177
167 6 176 178 179
168 6 178 181 182
169 6 181 183 184
170 6 183 185 186
171 6 190 191 192
172 6 191 193 194
173 6 193 196 197
174 6 196 199 200
175 6 199 202 203
176 6 202 204 205
177 6 204 206 207
178 6 206 209 210
179 6 209 211 212
180 6 211 213 214
181 6 213 215 216
182 6 217 218 219
183 6 218 222 223
184 6 222 224 225
185 6 224 227 228
186 6 230 231 232
187 6 231 233 234
188 6 233 235 236
189 7 8 9 10
190 7 12 13 14
191 7 15 16 17
192 8 20 21 22
193 8 20 21 23
194 7 28 29 30
195 8 38 39 40
196 8 38 39 41
197 7 48 49 50
198 7 53 54 55
199 8 56 57 58
200 8 56 57 59
201 7 60 61 62
202 8 72 73 74
203 8 72 73 75
204 8 79 80 81
205 8 79 80 82
206 7 84 85 86
207 7 87 88 89
208 8 99 100 101
209 8 99 100 102
210 8 105 106 107
211 8 105 106 108
212 7 116 117 118
213 7 121 122 123
214 9 129 130 131
215 10 129 130 132
216 7 134 135 136
217 8 149 150 151
218 8 149 150 152
219 7 161 162 163
220 7 164 165 166
221 8 167 168 169
222 8 167 168 170
223 7 178 179 180
224 8 185 186 187
225 8 185 186 188
226 7 193 194 195
227 7 196 197 198
228 7 199 200 201
229 7 206 207 208
230 8 218 219 220
231 8 218 219 221
232 7 224 225 226
233 7 227 228 229

Dihedrals

1 1 4 6 8 11
2 1 6 8 11 12
3 1 8 11 12 15
4 1 11 12 15 18
5 1 12 15 18 20
6 1 15 18 20 24
7 1 18 20 24 26
8 1 20 24 26 28
9 1 111 113 114 116
10 1 113 114 116 119
11 1 137 139 141 143
12 1 139 141 143 145
13 1 141 143 145 147
14 1 143 145 147 149
15 1 159 161 164 167
16 1 199 202 204 206
17 1 202 204 206 209
18 1 204 206 209 211
19 1 206 209 211 213
20 1 209 211 213 215
21 1 211 213 215 217
22 1 213 215 217 218
23 1 215 217 218 222
24 1 217 218 222 224
25 1 218 222 224 227
26 1 222 224 227 230
27 1 224 227 230 231
28 1 227 230 231 233

Impropers

1 1 20 22 23 21
2 1 38 40 41 39
3 1 56 58 59 57
4 1 72 74 75 73
5 1 79 81 82 80
6 1 99 101 102 100
7 1 105 107 108 106
8 1 129 131 132 130
9 2 130 131 133 132
10 1 149 151 152 150
11 1 167 169 170 168
12 1 185 187 188 186
13 1 218 220 221 219

