comment

236 atoms
248 bonds
233 angles
28 dihedrals
13 impropers

17 atom types
17 bond types
10 angle types
1 dihedral types
2 improper types

-40.5 40.5 xlo xhi
-40.5 40.5 ylo yhi
-190.0 190.0 zlo zhi

Masses

1 72.0
2 72.0
3 72.0
4 72.0
5 72.0
6 72.0
7 72.0
8 72.0
9 72.0
10 45.0
11 72.0
12 72.0
13 72.0
14 45.0
15 45.0
16 72.0
17 45.0

PairIJ Coeffs

1 1 1.19503 4.699999999999999
1 2 1.3384336 4.699999999999999
1 3 1.3384336 4.699999999999999
1 4 0.956024 4.699999999999999
1 5 0.478012 4.699999999999999
1 6 0.5497137999999999 4.699999999999999
1 7 0.836521 4.699999999999999
1 8 0.478012 4.699999999999999
1 9 1.19503 4.699999999999999
1 10 0.7409186 4.699999999999999
1 11 1.3384336 4.699999999999999
1 12 1.19503 4.699999999999999
1 13 0.7409186 4.699999999999999
1 14 0.6453162 4.699999999999999
1 15 1.19503 4.699999999999999
1 16 1.19503 4.699999999999999
1 17 0.956024 4.699999999999999
2 2 1.3384336 4.699999999999999
2 3 1.3384336 4.699999999999999
2 4 1.19503 4.699999999999999
2 5 0.5497137999999999 4.699999999999999
2 6 0.6453162 4.699999999999999
2 7 0.836521 4.699999999999999
2 8 0.478012 4.699999999999999
2 9 1.19503 4.699999999999999
2 10 0.7409186 4.699999999999999
2 11 1.3384336 4.699999999999999
2 12 1.19503 4.699999999999999
2 13 0.7409186 4.699999999999999
2 14 0.6453162 4.699999999999999
2 15 1.3384336 4.699999999999999
2 16 1.3384336 4.699999999999999
2 17 1.19503 4.699999999999999
3 3 1.19503 4.699999999999999
3 4 1.19503 4.699999999999999
3 5 0.478012 4.699999999999999
3 6 0.5497137999999999 4.699999999999999
3 7 0.836521 4.699999999999999
3 8 0.478012 4.699999999999999
3 9 0.956024 4.699999999999999
3 10 0.7409186 4.699999999999999
3 11 1.3384336 4.699999999999999
3 12 1.19503 4.699999999999999
3 13 0.7409186 4.699999999999999
3 14 0.6453162 4.699999999999999
3 15 1.19503 4.699999999999999
3 16 1.19503 4.699999999999999
3 17 1.19503 4.699999999999999
4 4 0.956024 4.699999999999999
4 5 0.6453162 4.699999999999999
4 6 0.6453162 4.699999999999999
4 7 0.836521 4.699999999999999
4 8 0.6453162 4.699999999999999
4 9 1.075527 4.699999999999999
4 10 0.836521 4.699999999999999
4 11 0.956024 4.699999999999999
4 12 1.075527 4.699999999999999
4 13 0.836521 4.699999999999999
4 14 0.7409186 4.699999999999999
4 15 1.075527 4.699999999999999
4 16 1.075527 4.699999999999999
4 17 0.956024 4.699999999999999
5 5 0.836521 4.699999999999999
5 6 0.836521 4.699999999999999
5 7 0.7409186 4.699999999999999
5 8 0.836521 4.699999999999999
5 9 0.6453162 4.699999999999999
5 10 0.7409186 4.699999999999999
5 11 0.5497137999999999 4.699999999999999
5 12 0.6453162 4.699999999999999
5 13 0.7409186 4.699999999999999
5 14 0.7409186 4.699999999999999
5 15 0.7409186 4.699999999999999
5 16 0.7409186 4.699999999999999
5 17 0.6453162 4.699999999999999
6 6 0.836521 4.699999999999999
6 7 0.836521 4.699999999999999
6 8 0.836521 4.699999999999999
6 9 0.6453162 4.699999999999999
6 10 0.836521 4.699999999999999
6 11 0.6453162 4.699999999999999
6 12 0.6453162 4.699999999999999
6 13 0.836521 4.699999999999999
6 14 0.836521 4.699999999999999
6 15 0.836521 4.699999999999999
6 16 0.836521 4.699999999999999
6 17 0.6453162 4.699999999999999
7 7 0.836521 4.699999999999999
7 8 0.6453162 4.699999999999999
7 9 0.836521 4.699999999999999
7 10 0.836521 4.699999999999999
7 11 0.836521 4.699999999999999
7 12 0.836521 4.699999999999999
7 13 0.836521 4.699999999999999
7 14 0.836521 4.699999999999999
7 15 0.956024 4.699999999999999
7 16 0.956024 4.699999999999999
7 17 0.836521 4.699999999999999
8 8 0.836521 4.699999999999999
8 9 0.6453162 4.699999999999999
8 10 0.7409186 4.699999999999999
8 11 0.478012 4.699999999999999
8 12 0.6453162 4.699999999999999
8 13 0.7409186 4.699999999999999
8 14 0.7409186 4.699999999999999
8 15 0.6453162 4.699999999999999
8 16 0.6453162 4.699999999999999
8 17 0.6453162 4.699999999999999
9 9 0.956024 4.699999999999999
9 10 0.836521 4.699999999999999
9 11 0.956024 4.699999999999999
9 12 1.075527 4.699999999999999
9 13 0.836521 4.699999999999999
9 14 0.7409186 4.699999999999999
9 15 1.075527 4.699999999999999
9 16 1.075527 4.699999999999999
9 17 1.075527 4.699999999999999
10 10 0.62739075 4.3
10 11 0.7409186 4.699999999999999
10 12 0.836521 4.699999999999999
10 13 0.836521 4.699999999999999
10 14 0.62739075 4.3
10 15 0.62739075 4.3
10 16 0.836521 4.699999999999999
10 17 0.62739075 4.3
11 11 1.19503 4.699999999999999
11 12 0.956024 4.699999999999999
11 13 0.7409186 4.699999999999999
11 14 0.6453162 4.699999999999999
11 15 1.075527 4.699999999999999
11 16 1.075527 4.699999999999999
11 17 0.956024 4.699999999999999
12 12 1.075527 4.699999999999999
12 13 0.836521 4.699999999999999
12 14 0.7409186 4.699999999999999
12 15 1.075527 4.699999999999999
12 16 1.075527 4.699999999999999
12 17 1.075527 4.699999999999999
13 13 0.836521 4.699999999999999
13 14 0.836521 4.699999999999999
13 15 0.836521 4.699999999999999
13 16 0.836521 4.699999999999999
13 17 0.836521 4.699999999999999
14 14 0.62739075 4.3
14 15 0.62739075 4.3
14 16 0.836521 4.699999999999999
14 17 0.5556889500000001 4.3
15 15 0.80664525 4.3
15 16 1.075527 4.699999999999999
15 17 0.80664525 4.3
16 16 1.075527 4.699999999999999
16 17 1.075527 4.699999999999999
17 17 0.7170179999999999 4.3

Bond Coeffs

1 1.4937875 3.5
2 8.962725 3.2
3 5.97515 4.0
4 5.97515 3.3000000000000003
5 5.97515 2.8000000000000003
6 8.962725 3.1
7 8.962725 3.0
8 5.97515 3.2
9 8.962725 3.3000000000000003
10 5.97515 3.4000000000000004
11 5.97515 3.0
12 2.987575 4.0
13 11.9503 3.3000000000000003
14 11.9503 3.1
15 11.9503 2.6500000000000004
16 11.9503 2.7
17 11.9503 2.6

Angle Coeffs

1 2.39006 127
2 83.6521 96
3 2.39006 100
4 2.39006 130
5 11.9503 98
6 2.987575 100
7 2.987575 180
8 5.97515 150
9 5.97515 210
10 5.97515 90

Dihedral Coeffs

1 95.6024 1 -120 0

Improper Coeffs

1 5.97515 0
2 23.9006 0

Atoms

1 1 1 1.0000 1.2549999 -0.027 -48.818
2 1 2 0.0000 0.00467756 0.130329 -50.955803
3 1 3 -1.0000 -1.33258 -1.05316 -53.400402
4 1 4 0.0000 1.70046 2.11471 -54.191097
5 1 5 0.0000 3.11904 0.38134798 -55.4422
6 1 4 0.0000 1.66883 5.40792 -54.7245
7 1 3 -1.0000 -1.72886 5.9286203 -55.854904
8 1 4 0.0000 4.40685 5.7775803 -56.276203
9 1 6 0.0000 6.92173 3.58302 -55.1757
10 1 1 1.0000 8.13887 1.3467599 -55.843002
11 1 4 0.0000 3.73075 4.64876 -59.2696
12 1 7 0.0000 1.5156101 6.7404404 -60.0539
13 1 6 0.0000 -1.3727801 7.01602 -60.7126
14 1 1 1.0000 -4.34295 5.936 -59.7995
15 1 7 0.0000 3.2341301 9.636 -59.4912
16 1 6 0.0000 1.92487 11.1157 -56.8853
17 1 1 1.0000 -0.46201798 10.2603 -55.6223
18 1 7 0.0000 5.95964 9.10199 -61.433
19 1 8 0.0000 8.05486 7.16878 -60.1228
20 1 9 0.0000 4.63658 9.650229 -64.2693
21 1 10 0.0000 4.907 9.5200405 -67.3365
22 1 10 0.0000 4.6048203 9.449719 -69.96
23 1 10 0.0000 6.91382 8.8651 -69.3497
24 1 9 0.0000 3.64712 12.772699 -63.9532
25 1 5 0.0000 1.20681 14.190101 -63.426098
26 1 9 0.0000 6.48547 14.1853 -63.271797
27 1 11 0.0000 5.11654 17.323 -65.2736
28 1 9 0.0000 7.87078 13.0169 -65.7512
29 1 6 0.0000 9.41319 10.5972 -65.4494
30 1 1 1.0000 11.0718 8.50482 -64.8936
31 1 12 0.0000 7.36924 13.7953 -68.7977
32 1 13 0.0000 8.50513 13.8907 -71.6699
33 1 7 0.0000 3.8275099 14.541201 -69.3003
34 1 12 0.0000 1.27036 12.6527 -68.4161
35 1 11 0.0000 -1.7309401 16.0705 -67.9767
36 1 12 0.0000 -0.12233199 12.4089 -71.788704
37 1 13 0.0000 -0.375503 15.5658 -71.4642
38 1 2 0.0000 -0.51608497 8.7440405 -71.1205
39 1 14 0.0000 1.30876 7.33461 -72.6271
40 1 15 0.0000 3.42792 5.5598497 -72.1907
41 1 15 0.0000 3.5418 7.4390697 -74.053604
42 1 2 0.0000 -4.28806 7.78153 -71.1001
43 1 16 0.0000 -4.65926 8.18731 -73.4708
44 1 2 0.0000 -4.34723 6.81906 -67.3804
45 1 5 0.0000 -2.87269 4.57182 -67.5397
46 1 2 0.0000 -6.96182 6.65703 -65.0574
47 1 3 -1.0000 -5.518 9.16066 -62.687202
48 1 12 0.0000 -10.6917 3.79772 -64.6828
49 1 6 0.0000 -11.9919 2.92409 -61.7989
50 1 1 1.0000 -11.7987 1.5683299 -59.1183
51 1 12 0.0000 -12.9249 6.0535502 -66.7406
52 1 2 0.0000 -9.35152 8.00045 -67.54
53 1 2 0.0000 -9.95738 10.9509 -66.5275
54 1 6 0.0000 -10.2458 9.21619 -63.096
55 1 1 1.0000 -9.38149 7.4778996 -60.5867
56 1 2 0.0000 -9.20924 12.8518 -70.6292
57 1 14 0.0000 -10.8191 10.5855 -71.654
58 1 15 0.0000 -9.430429 8.58364 -72.5734
59 1 15 0.0000 -11.6463 7.76403 -71.8702
60 1 2 0.0000 -5.21914 12.9625 -71.8175
61 1 6 0.0000 -4.6513 12.1314 -68.2189
62 1 1 1.0000 -3.35607 11.434899 -65.9492
63 1 2 0.0000 -3.83018 12.6044 -75.6039
64 1 16 0.0000 -3.6950998 14.815599 -76.9541
65 1 2 0.0000 -1.07207 9.96445 -76.2334
66 1 11 0.0000 -0.168648 6.17803 -76.908104
67 1 6 0.0000 1.5809 5.6851397 -79.141205
68 1 2 0.0000 -1.8831099 4.41062 -74.8777
69 1 2 0.0000 -4.59323 4.02567 -76.4811
70 1 2 0.0000 -2.14758 2.38428 -72.1424
71 1 8 0.0000 0.482467 2.21223 -70.2549
72 1 12 0.0000 -6.0286703 2.5724502 -73.644196
73 1 14 0.0000 -7.2975802 3.56933 -71.1511
74 1 15 0.0000 -9.39705 4.20801 -70.3655
75 1 15 0.0000 -7.5269995 3.43263 -68.6548
76 1 12 0.0000 -7.4551897 -0.95561695 -73.270004
77 1 2 0.0000 -5.24812 -2.30082 -71.242096
78 1 8 0.0000 -4.2939 -0.715454 -68.409
79 1 12 0.0000 -5.8545 -5.6425705 -70.423294
80 1 10 0.0000 -4.2930703 -6.33713 -67.2052
81 1 10 0.0000 -3.8902302 -5.8146296 -64.3972
82 1 10 0.0000 -6.21523 -6.81951 -65.2721
83 1 12 0.0000 -5.06701 -8.199989 -72.550804
84 1 2 0.0000 -5.29086 -6.5162497 -76.0064
85 1 7 0.0000 -3.94528 -3.92751 -75.7482
86 1 1 1.0000 -3.5101602 -1.08804 -76.2314
87 1 2 0.0000 -3.90962 -7.81575 -79.0085
88 1 6 0.0000 -0.81381094 -9.14447 -79.986404
89 1 1 1.0000 0.516285 -11.4195 -80.7468
90 1 12 0.0000 -2.33646 -4.14949 -80.0894
91 1 16 0.0000 -0.221823 -4.34757 -78.7764
92 1 12 0.0000 -5.07508 -3.0570998 -81.6827
93 1 2 0.0000 -7.0136 -0.78758407 -80.0644
94 1 11 0.0000 -8.816051 -3.07481 -77.6914
95 1 11 0.0000 -8.64417 2.11254 -77.9218
96 1 7 0.0000 -10.2337 4.20547 -75.7701
97 1 6 0.0000 -12.8659 3.03872 -75.3979
98 1 12 0.0000 -8.5806 6.8649297 -77.4181
99 1 2 0.0000 -8.04906 5.20874 -80.3363
100 1 10 0.0000 -7.61926 7.58161 -82.5887
101 1 10 0.0000 -5.7463 7.49517 -84.7677
102 1 10 0.0000 -7.35754 9.86732 -84.2433
103 1 2 0.0000 -4.83224 3.4563801 -81.5565
104 1 16 0.0000 -5.5618696 2.24526 -83.9441
105 1 2 0.0000 -1.87463 5.1733 -81.9596
106 1 14 0.0000 -2.99008 7.7893696 -81.090096
107 1 14 0.0000 -4.63272 9.365 -80.0063
108 1 15 0.0000 -2.8948302 10.3591 -81.3799
109 1 2 0.0000 -1.3959899 4.56557 -85.399
110 1 16 0.0000 -2.30822 5.75541 -87.6274
111 1 4 0.0000 1.5767599 3.14043 -85.604095
112 1 3 -1.0000 2.35353 1.4871501 -88.1492
113 1 7 0.0000 2.6762 2.18011 -82.763
114 1 12 0.0000 -0.14312899 0.726534 -81.796104
115 1 2 0.0000 -0.142315 1.2377601 -78.6875
116 1 12 0.0000 -0.223139 -1.1286 -84.4201
117 1 6 0.0000 -2.50388 -0.523057 -86.9559
118 1 1 1.0000 -1.98538 0.878075 -89.3589
119 1 9 0.0000 2.6232698 -2.9833999 -83.7218
120 1 2 0.0000 4.01449 -2.9920797 -86.324196
121 1 2 0.0000 4.2046 -5.31594 -81.661995
122 1 6 0.0000 7.8037696 -5.18847 -81.5999
123 1 1 1.0000 9.87948 -5.623 -79.4139
124 1 2 0.0000 3.59298 -7.63022 -79.6627
125 1 2 0.0000 2.43062 -8.11787 -76.4813
126 1 8 0.0000 3.01507 -11.2291 -76.4753
127 1 2 0.0000 -0.183588 -8.42687 -74.0204
128 1 16 0.0000 -1.37536 -10.5449 -74.6894
129 1 2 0.0000 -0.682374 -7.92876 -69.8477
130 1 14 0.0000 -0.714067 -5.11286 -70.5538
131 1 17 0.0000 -0.230099 -2.99005 -71.7571
132 1 10 0.0000 -0.022316 -5.07668 -73.333
133 1 10 0.0000 0.476599 -2.80118 -74.0585
134 1 2 0.0000 0.32084498 -8.104011 -66.4397
135 1 6 0.0000 2.4951901 -10.658799 -67.1025
136 1 1 1.0000 4.39275 -11.8901005 -64.7351
137 1 4 0.0000 2.6700199 -6.26951 -66.0177
138 1 3 -1.0000 5.3693495 -8.0029 -62.707
139 1 4 0.0000 5.0400696 -7.5146003 -67.3204
140 1 3 -1.0000 6.3165197 -8.07398 -63.305897
141 1 4 0.0000 4.52949 -6.46531 -70.6071
142 1 16 0.0000 5.08003 -8.36609 -72.2516
143 1 12 0.0000 4.41957 -3.3299198 -69.9028
144 1 8 0.0000 4.04029 -0.544993 -69.9517
145 1 9 0.0000 7.58078 -3.37011 -68.9144
146 1 13 0.0000 10.022699 -5.5658603 -66.5913
147 1 9 0.0000 8.84272 -3.61206 -71.8385
148 1 3 -1.0000 11.5318 -4.2252903 -74.8951
149 1 9 0.0000 7.6655397 -0.61052 -72.8547
150 1 14 0.0000 5.51674 1.0020499 -74.4447
151 1 14 0.0000 4.51401 2.60676 -76.4707
152 1 15 0.0000 2.8355699 1.49971 -74.813095
153 1 12 0.0000 9.212891 1.6521599 -71.4686
154 1 8 0.0000 7.07768 3.46448 -69.8351
155 1 12 0.0000 12.460001 0.77604896 -72.3247
156 1 3 -1.0000 16.2984 0.275303 -71.179596
157 1 2 0.0000 12.508499 3.8183 -74.131195
158 1 2 0.0000 14.8309 5.20438 -75.3961
159 1 7 0.0000 9.68978 3.29074 -75.6062
160 1 6 0.0000 8.06981 5.70947 -74.3528
161 1 12 0.0000 10.7705 3.31922 -78.627304
162 1 6 0.0000 12.4765005 6.27974 -79.815605
163 1 1 1.0000 12.337299 8.61131 -78.3821
164 1 12 0.0000 11.238299 0.194436 -78.7469
165 1 6 0.0000 13.7334 -0.0339759 -77.1347
166 1 1 1.0000 15.5007 -1.80537 -75.395004
167 1 12 0.0000 8.36835 -0.687162 -78.2491
168 1 14 0.0000 6.4081197 -2.85891 -77.0673
169 1 14 0.0000 4.57005 -3.6715002 -75.0763
170 1 15 0.0000 6.26666 -5.16259 -75.9751
171 1 2 0.0000 5.9507 0.370038 -80.2534
172 1 8 0.0000 3.61642 -1.39071 -79.3111
173 1 7 0.0000 6.79115 -0.367789 -83.477295
174 1 6 0.0000 9.43605 -1.18731 -84.8571
175 1 12 0.0000 8.71647 3.3271198 -82.9649
176 1 2 0.0000 7.4634 6.8599896 -81.3366
177 1 16 0.0000 6.49189 6.21644 -79.0376
178 1 2 0.0000 5.05698 6.9525404 -83.4929
179 1 6 0.0000 6.48197 5.31606 -85.8161
180 1 1 1.0000 6.24757 3.10662 -87.2147
181 1 2 0.0000 2.2165399 8.8408 -83.4481
182 1 13 0.0000 2.0301201 8.60411 -87.6818
183 1 2 0.0000 1.91548 10.5994 -80.1472
184 1 8 0.0000 0.20856 13.6874 -80.4811
185 1 2 0.0000 4.28036 11.227799 -77.553
186 1 10 0.0000 3.19605 13.6123 -76.319496
187 1 10 0.0000 3.39396 15.5901 -74.689896
188 1 10 0.0000 1.38798 15.9661 -76.2536
189 1 11 0.0000 7.3782597 10.4188 -77.1395
190 1 2 0.0000 9.34616 10.342501 -74.8429
191 1 2 0.0000 11.9414 8.882629 -72.0256
192 1 8 0.0000 12.3599 10.374399 -69.2623
193 1 2 0.0000 12.0147 5.4255495 -68.8519
194 1 6 0.0000 14.8414 5.02036 -69.8454
195 1 1 1.0000 17.0424 4.2938 -68.7619
196 1 2 0.0000 15.4601 1.13473 -66.2601
197 1 6 0.0000 17.156399 2.40705 -63.6453
198 1 1 1.0000 16.8584 4.0681 -61.146202
199 1 4 0.0000 14.2409 -1.19782 -63.870502
200 1 6 0.0000 11.941 -3.50574 -62.7244
201 1 1 1.0000 8.94123 -4.89057 -61.658703
202 1 4 0.0000 12.995501 0.830431 -61.885902
203 1 16 0.0000 12.0095005 0.60763097 -59.3151
204 1 4 0.0000 12.0079 3.26509 -64.1194
205 1 3 -1.0000 14.632601 6.11455 -64.843605
206 1 4 0.0000 10.1816 1.46329 -65.683395
207 1 7 0.0000 11.5506 -0.674639 -67.8321
208 1 1 1.0000 13.4085 -3.1335301 -69.8983
209 1 7 0.0000 8.65069 0.00520645 -63.4496
210 1 3 -1.0000 7.18958 -1.3752999 -59.436
211 1 7 0.0000 7.00467 2.42801 -62.1209
212 1 3 -1.0000 6.17343 -0.435174 -59.621502
213 1 7 0.0000 5.6768603 3.34099 -64.7836
214 1 8 0.0000 7.5296903 5.76714 -65.5514
215 1 7 0.0000 4.20625 0.547236 -65.3426
216 1 8 0.0000 5.25538 -2.34182 -64.7887
217 1 13 0.0000 2.58697 1.00827 -62.5988
218 1 7 0.0000 0.74493897 3.07953 -63.6404
219 1 14 0.0000 1.23094 5.43267 -65.3322
220 1 14 0.0000 2.3835201 6.39302 -67.321
221 1 15 0.0000 0.587407 8.01467 -66.1531
222 1 7 0.0000 -0.73507303 0.66784096 -65.6359
223 1 8 0.0000 0.70708203 -1.97096 -67.0741
224 1 7 0.0000 -1.8738999 -1.03076 -63.1628
225 1 6 0.0000 0.584238 -3.48483 -61.875603
226 1 1 1.0000 3.53282 -4.03155 -60.8189
227 1 9 0.0000 -3.3932998 1.4025999 -61.566902
228 1 6 0.0000 -2.5121799 1.37152 -58.494904
229 1 1 1.0000 -4.3309 1.9595001 -56.4312
230 1 7 0.0000 -5.45592 2.11973 -64.0293
231 1 9 0.0000 -7.09836 -0.719329 -63.901
232 1 16 0.0000 -8.41866 -1.7149199 -66.2918
233 1 9 0.0000 -7.95483 -0.599607 -60.913803
234 1 2 0.0000 -5.59842 -2.9491 -59.4857
235 1 3 -1.0000 -7.7435203 2.8309102 -60.1483
236 1 3 -1.0000 -8.02481 4.4372697 -57.4869

Bonds

1 1 1 2
2 1 31 33
3 1 33 34
4 1 34 36
5 1 36 38
6 1 38 42
7 1 42 44
8 1 44 46
9 1 46 48
10 1 48 51
11 1 51 52
12 1 52 53
13 1 53 56
14 1 56 60
15 1 60 63
16 1 63 65
17 1 65 66
18 1 66 68
19 1 68 70
20 1 70 72
21 1 72 76
22 1 76 77
23 1 77 79
24 1 79 83
25 1 83 84
26 1 84 87
27 1 87 90
28 1 90 92
29 1 92 93
30 1 93 95
31 1 95 96
32 1 96 98
33 1 98 99
34 1 99 103
35 1 103 105
36 1 105 109
37 1 121 124
38 1 124 125
39 1 125 127
40 1 127 129
41 1 129 134
42 1 153 155
43 1 155 157
44 1 171 173
45 1 173 175
46 1 175 176
47 1 176 178
48 1 178 181
49 1 181 183
50 1 183 185
51 1 185 189
52 1 189 190
53 1 190 191
54 1 191 193
55 1 193 196
56 2 2 3
57 3 6 7
58 4 8 9
59 5 9 10
60 4 12 13
61 5 13 14
62 4 15 16
63 5 16 17
64 6 20 21
65 3 26 27
66 4 28 29
67 5 29 30
68 6 31 32
69 3 34 35
70 6 36 37
71 2 38 39
72 3 46 47
73 4 48 49
74 5 49 50
75 4 53 54
76 5 54 55
77 2 56 57
78 4 60 61
79 5 61 62
80 7 66 67
81 8 68 69
82 9 70 71
83 2 72 73
84 9 77 78
85 6 79 80
86 4 84 85
87 10 85 86
88 4 87 88
89 5 88 89
90 3 93 94
91 7 96 97
92 6 99 100
93 8 105 106
94 2 111 112
95 8 114 115
96 4 116 117
97 5 117 118
98 8 119 120
99 4 121 122
100 5 122 123
101 11 129 130
102 4 134 135
103 5 135 136
104 3 137 138
105 3 139 140
106 9 143 144
107 12 145 146
108 3 147 148
109 8 149 150
110 9 153 154
111 3 155 156
112 8 157 158
113 7 159 160
114 4 161 162
115 5 162 163
116 4 164 165
117 5 165 166
118 8 167 168
119 7 173 174
120 4 178 179
121 5 179 180
122 12 181 182
123 6 185 186
124 4 193 194
125 5 194 195
126 4 196 197
127 5 197 198
128 4 199 200
129 5 200 201
130 3 204 205
131 4 206 207
132 10 207 208
133 3 209 210
134 2 211 212
135 9 213 214
136 8 218 219
137 9 222 223
138 4 224 225
139 5 225 226
140 4 227 228
141 5 228 229
142 8 233 234
143 3 235 236
144 13 2 4
145 14 4 6
146 14 6 8
147 14 8 11
148 14 11 12
149 14 12 15
150 14 15 18
151 14 18 20
152 14 20 24
153 14 24 26
154 14 26 28
155 13 28 31
156 13 109 111
157 14 111 113
158 14 113 114
159 14 114 116
160 14 116 119
161 13 119 121
162 13 134 137
163 14 137 139
164 14 139 141
165 14 141 143
166 14 143 145
167 14 145 147
168 14 147 149
169 13 149 153
170 13 157 159
171 14 159 161
172 14 161 164
173 14 164 167
174 13 167 171
175 13 196 199
176 14 199 202
177 14 202 204
178 14 204 206
179 14 206 209
180 14 209 211
181 14 211 213
182 14 213 215
183 14 215 217
184 14 217 218
185 14 218 222
186 14 222 224
187 14 224 227
188 14 227 230
189 14 230 231
190 14 231 233
191 13 233 235
192 15 4 5
193 14 18 19
194 16 21 22
195 16 21 23
196 16 22 23
197 15 24 25
198 16 39 40
199 16 39 41
200 16 40 41
201 17 42 43
202 15 44 45
203 16 57 58
204 16 57 59
205 16 58 59
206 17 63 64
207 16 73 74
208 16 73 75
209 16 74 75
210 16 80 81
211 16 80 82
212 16 81 82
213 17 90 91
214 16 100 101
215 16 100 102
216 16 101 102
217 17 103 104
218 16 106 107
219 16 106 108
220 16 107 108
221 17 109 110
222 14 125 126
223 17 127 128
224 16 130 131
225 16 130 132
226 16 131 132
227 16 131 133
228 16 132 133
229 17 141 142
230 16 150 151
231 16 150 152
232 16 151 152
233 16 168 169
234 16 168 170
235 16 169 170
236 14 171 172
237 17 176 177
238 14 183 184
239 16 186 187
240 16 186 188
241 16 187 188
242 14 191 192
243 17 202 203
244 14 215 216
245 16 219 220
246 16 219 221
247 16 220 221
248 17 231 232

Angles

1 1 1 2 4
2 1 2 4 6
3 2 4 6 8
4 2 6 8 11
5 2 8 11 12
6 2 11 12 15
7 2 12 15 18
8 2 15 18 20
9 2 18 20 24
10 2 20 24 26
11 2 24 26 28
12 3 26 28 31
13 3 28 31 33
14 3 31 33 34
15 3 33 34 36
16 3 34 36 38
17 3 36 38 42
18 1 38 42 44
19 1 42 44 46
20 3 44 46 48
21 3 46 48 51
22 3 48 51 52
23 3 51 52 53
24 1 52 53 56
25 1 53 56 60
26 1 56 60 63
27 1 60 63 65
28 4 63 65 66
29 1 65 66 68
30 1 66 68 70
31 3 68 70 72
32 3 70 72 76
33 3 72 76 77
34 3 76 77 79
35 3 77 79 83
36 3 79 83 84
37 3 83 84 87
38 3 84 87 90
39 3 87 90 92
40 3 90 92 93
41 3 92 93 95
42 1 93 95 96
43 3 95 96 98
44 3 96 98 99
45 3 98 99 103
46 1 99 103 105
47 1 103 105 109
48 1 105 109 111
49 1 109 111 113
50 2 111 113 114
51 2 113 114 116
52 2 114 116 119
53 1 116 119 121
54 1 119 121 124
55 1 121 124 125
56 1 124 125 127
57 1 125 127 129
58 1 127 129 134
59 1 129 134 137
60 4 134 137 139
61 2 137 139 141
62 2 139 141 143
63 2 141 143 145
64 2 143 145 147
65 2 145 147 149
66 3 147 149 153
67 3 149 153 155
68 3 153 155 157
69 3 155 157 159
70 5 157 159 161
71 5 159 161 164
72 2 161 164 167
73 4 164 167 171
74 4 167 171 173
75 3 171 173 175
76 3 173 175 176
77 3 175 176 178
78 1 176 178 181
79 1 178 181 183
80 1 181 183 185
81 1 183 185 189
82 1 185 189 190
83 1 189 190 191
84 1 190 191 193
85 1 191 193 196
86 1 193 196 199
87 4 196 199 202
88 2 199 202 204
89 2 202 204 206
90 2 204 206 209
91 2 206 209 211
92 2 209 211 213
93 2 211 213 215
94 2 213 215 217
95 2 215 217 218
96 2 217 218 222
97 2 218 222 224
98 2 222 224 227
99 2 224 227 230
100 2 227 230 231
101 2 230 231 233
102 1 231 233 235
103 6 1 2 3
104 6 2 4 5
105 6 4 6 7
106 6 6 8 9
107 6 11 12 13
108 6 12 15 16
109 6 15 18 19
110 6 18 20 21
111 6 20 24 25
112 6 24 26 27
113 6 26 28 29
114 6 28 31 32
115 6 33 34 35
116 6 34 36 37
117 6 36 38 39
118 6 38 42 43
119 6 42 44 45
120 6 44 46 47
121 6 46 48 49
122 6 52 53 54
123 6 53 56 57
124 6 56 60 61
125 6 60 63 64
126 6 65 66 67
127 6 66 68 69
128 6 68 70 71
129 6 70 72 73
130 6 76 77 78
131 6 77 79 80
132 6 83 84 85
133 6 84 87 88
134 6 87 90 91
135 6 92 93 94
136 6 95 96 97
137 6 98 99 100
138 6 99 103 104
139 6 103 105 106
140 6 105 109 110
141 6 109 111 112
142 6 113 114 115
143 6 114 116 117
144 6 116 119 120
145 6 119 121 122
146 6 124 125 126
147 6 125 127 128
148 6 127 129 130
149 6 129 134 135
150 6 134 137 138
151 6 137 139 140
152 6 139 141 142
153 6 141 143 144
154 6 143 145 146
155 6 145 147 148
156 6 147 149 150
157 6 149 153 154
158 6 153 155 156
159 6 155 157 158
160 6 157 159 160
161 6 159 161 162
162 6 161 164 165
163 6 164 167 168
164 6 167 171 172
165 6 171 173 174
166 6 175 176 177
167 6 176 178 179
168 6 178 181 182
169 6 181 183 184
170 6 183 185 186
171 6 190 191 192
172 6 191 193 194
173 6 193 196 197
174 6 196 199 200
175 6 199 202 203
176 6 202 204 205
177 6 204 206 207
178 6 206 209 210
179 6 209 211 212
180 6 211 213 214
181 6 213 215 216
182 6 217 218 219
183 6 218 222 223
184 6 222 224 225
185 6 224 227 228
186 6 230 231 232
187 6 231 233 234
188 6 233 235 236
189 7 8 9 10
190 7 12 13 14
191 7 15 16 17
192 8 20 21 22
193 8 20 21 23
194 7 28 29 30
195 8 38 39 40
196 8 38 39 41
197 7 48 49 50
198 7 53 54 55
199 8 56 57 58
200 8 56 57 59
201 7 60 61 62
202 8 72 73 74
203 8 72 73 75
204 8 79 80 81
205 8 79 80 82
206 7 84 85 86
207 7 87 88 89
208 8 99 100 101
209 8 99 100 102
210 8 105 106 107
211 8 105 106 108
212 7 116 117 118
213 7 121 122 123
214 9 129 130 131
215 10 129 130 132
216 7 134 135 136
217 8 149 150 151
218 8 149 150 152
219 7 161 162 163
220 7 164 165 166
221 8 167 168 169
222 8 167 168 170
223 7 178 179 180
224 8 185 186 187
225 8 185 186 188
226 7 193 194 195
227 7 196 197 198
228 7 199 200 201
229 7 206 207 208
230 8 218 219 220
231 8 218 219 221
232 7 224 225 226
233 7 227 228 229

Dihedrals

1 1 4 6 8 11
2 1 6 8 11 12
3 1 8 11 12 15
4 1 11 12 15 18
5 1 12 15 18 20
6 1 15 18 20 24
7 1 18 20 24 26
8 1 20 24 26 28
9 1 111 113 114 116
10 1 113 114 116 119
11 1 137 139 141 143
12 1 139 141 143 145
13 1 141 143 145 147
14 1 143 145 147 149
15 1 159 161 164 167
16 1 199 202 204 206
17 1 202 204 206 209
18 1 204 206 209 211
19 1 206 209 211 213
20 1 209 211 213 215
21 1 211 213 215 217
22 1 213 215 217 218
23 1 215 217 218 222
24 1 217 218 222 224
25 1 218 222 224 227
26 1 222 224 227 230
27 1 224 227 230 231
28 1 227 230 231 233

Impropers

1 1 20 22 23 21
2 1 38 40 41 39
3 1 56 58 59 57
4 1 72 74 75 73
5 1 79 81 82 80
6 1 99 101 102 100
7 1 105 107 108 106
8 1 129 131 132 130
9 2 130 131 133 132
10 1 149 151 152 150
11 1 167 169 170 168
12 1 185 187 188 186
13 1 218 220 221 219

