comment

236 atoms
248 bonds
233 angles
28 dihedrals
13 impropers

17 atom types
17 bond types
10 angle types
1 dihedral types
2 improper types

-40.5 40.5 xlo xhi
-40.5 40.5 ylo yhi
-190.0 190.0 zlo zhi

Masses

1 72.0
2 72.0
3 72.0
4 72.0
5 72.0
6 72.0
7 72.0
8 72.0
9 72.0
10 45.0
11 72.0
12 72.0
13 72.0
14 45.0
15 45.0
16 72.0
17 45.0

PairIJ Coeffs

1 1 1.19503 4.699999999999999
1 2 1.3384336 4.699999999999999
1 3 1.3384336 4.699999999999999
1 4 0.956024 4.699999999999999
1 5 0.478012 4.699999999999999
1 6 0.5497137999999999 4.699999999999999
1 7 0.836521 4.699999999999999
1 8 0.478012 4.699999999999999
1 9 1.19503 4.699999999999999
1 10 0.7409186 4.699999999999999
1 11 1.3384336 4.699999999999999
1 12 1.19503 4.699999999999999
1 13 0.7409186 4.699999999999999
1 14 0.6453162 4.699999999999999
1 15 1.19503 4.699999999999999
1 16 1.19503 4.699999999999999
1 17 0.956024 4.699999999999999
2 2 1.3384336 4.699999999999999
2 3 1.3384336 4.699999999999999
2 4 1.19503 4.699999999999999
2 5 0.5497137999999999 4.699999999999999
2 6 0.6453162 4.699999999999999
2 7 0.836521 4.699999999999999
2 8 0.478012 4.699999999999999
2 9 1.19503 4.699999999999999
2 10 0.7409186 4.699999999999999
2 11 1.3384336 4.699999999999999
2 12 1.19503 4.699999999999999
2 13 0.7409186 4.699999999999999
2 14 0.6453162 4.699999999999999
2 15 1.3384336 4.699999999999999
2 16 1.3384336 4.699999999999999
2 17 1.19503 4.699999999999999
3 3 1.19503 4.699999999999999
3 4 1.19503 4.699999999999999
3 5 0.478012 4.699999999999999
3 6 0.5497137999999999 4.699999999999999
3 7 0.836521 4.699999999999999
3 8 0.478012 4.699999999999999
3 9 0.956024 4.699999999999999
3 10 0.7409186 4.699999999999999
3 11 1.3384336 4.699999999999999
3 12 1.19503 4.699999999999999
3 13 0.7409186 4.699999999999999
3 14 0.6453162 4.699999999999999
3 15 1.19503 4.699999999999999
3 16 1.19503 4.699999999999999
3 17 1.19503 4.699999999999999
4 4 0.956024 4.699999999999999
4 5 0.6453162 4.699999999999999
4 6 0.6453162 4.699999999999999
4 7 0.836521 4.699999999999999
4 8 0.6453162 4.699999999999999
4 9 1.075527 4.699999999999999
4 10 0.836521 4.699999999999999
4 11 0.956024 4.699999999999999
4 12 1.075527 4.699999999999999
4 13 0.836521 4.699999999999999
4 14 0.7409186 4.699999999999999
4 15 1.075527 4.699999999999999
4 16 1.075527 4.699999999999999
4 17 0.956024 4.699999999999999
5 5 0.836521 4.699999999999999
5 6 0.836521 4.699999999999999
5 7 0.7409186 4.699999999999999
5 8 0.836521 4.699999999999999
5 9 0.6453162 4.699999999999999
5 10 0.7409186 4.699999999999999
5 11 0.5497137999999999 4.699999999999999
5 12 0.6453162 4.699999999999999
5 13 0.7409186 4.699999999999999
5 14 0.7409186 4.699999999999999
5 15 0.7409186 4.699999999999999
5 16 0.7409186 4.699999999999999
5 17 0.6453162 4.699999999999999
6 6 0.836521 4.699999999999999
6 7 0.836521 4.699999999999999
6 8 0.836521 4.699999999999999
6 9 0.6453162 4.699999999999999
6 10 0.836521 4.699999999999999
6 11 0.6453162 4.699999999999999
6 12 0.6453162 4.699999999999999
6 13 0.836521 4.699999999999999
6 14 0.836521 4.699999999999999
6 15 0.836521 4.699999999999999
6 16 0.836521 4.699999999999999
6 17 0.6453162 4.699999999999999
7 7 0.836521 4.699999999999999
7 8 0.6453162 4.699999999999999
7 9 0.836521 4.699999999999999
7 10 0.836521 4.699999999999999
7 11 0.836521 4.699999999999999
7 12 0.836521 4.699999999999999
7 13 0.836521 4.699999999999999
7 14 0.836521 4.699999999999999
7 15 0.956024 4.699999999999999
7 16 0.956024 4.699999999999999
7 17 0.836521 4.699999999999999
8 8 0.836521 4.699999999999999
8 9 0.6453162 4.699999999999999
8 10 0.7409186 4.699999999999999
8 11 0.478012 4.699999999999999
8 12 0.6453162 4.699999999999999
8 13 0.7409186 4.699999999999999
8 14 0.7409186 4.699999999999999
8 15 0.6453162 4.699999999999999
8 16 0.6453162 4.699999999999999
8 17 0.6453162 4.699999999999999
9 9 0.956024 4.699999999999999
9 10 0.836521 4.699999999999999
9 11 0.956024 4.699999999999999
9 12 1.075527 4.699999999999999
9 13 0.836521 4.699999999999999
9 14 0.7409186 4.699999999999999
9 15 1.075527 4.699999999999999
9 16 1.075527 4.699999999999999
9 17 1.075527 4.699999999999999
10 10 0.62739075 4.3
10 11 0.7409186 4.699999999999999
10 12 0.836521 4.699999999999999
10 13 0.836521 4.699999999999999
10 14 0.62739075 4.3
10 15 0.62739075 4.3
10 16 0.836521 4.699999999999999
10 17 0.62739075 4.3
11 11 1.19503 4.699999999999999
11 12 0.956024 4.699999999999999
11 13 0.7409186 4.699999999999999
11 14 0.6453162 4.699999999999999
11 15 1.075527 4.699999999999999
11 16 1.075527 4.699999999999999
11 17 0.956024 4.699999999999999
12 12 1.075527 4.699999999999999
12 13 0.836521 4.699999999999999
12 14 0.7409186 4.699999999999999
12 15 1.075527 4.699999999999999
12 16 1.075527 4.699999999999999
12 17 1.075527 4.699999999999999
13 13 0.836521 4.699999999999999
13 14 0.836521 4.699999999999999
13 15 0.836521 4.699999999999999
13 16 0.836521 4.699999999999999
13 17 0.836521 4.699999999999999
14 14 0.62739075 4.3
14 15 0.62739075 4.3
14 16 0.836521 4.699999999999999
14 17 0.5556889500000001 4.3
15 15 0.80664525 4.3
15 16 1.075527 4.699999999999999
15 17 0.80664525 4.3
16 16 1.075527 4.699999999999999
16 17 1.075527 4.699999999999999
17 17 0.7170179999999999 4.3

Bond Coeffs

1 1.4937875 3.5
2 8.962725 3.2
3 5.97515 4.0
4 5.97515 3.3000000000000003
5 5.97515 2.8000000000000003
6 8.962725 3.1
7 8.962725 3.0
8 5.97515 3.2
9 8.962725 3.3000000000000003
10 5.97515 3.4000000000000004
11 5.97515 3.0
12 2.987575 4.0
13 11.9503 3.3000000000000003
14 11.9503 3.1
15 11.9503 2.6500000000000004
16 11.9503 2.7
17 11.9503 2.6

Angle Coeffs

1 2.39006 127
2 83.6521 96
3 2.39006 100
4 2.39006 130
5 11.9503 98
6 2.987575 100
7 2.987575 180
8 5.97515 150
9 5.97515 210
10 5.97515 90

Dihedral Coeffs

1 95.6024 1 -120 0

Improper Coeffs

1 5.97515 0
2 23.9006 0

Atoms

1 1 1 1.0000 1.2549999 -0.027 -48.818
2 1 2 0.0000 -0.0149204 0.149594 -50.6839
3 1 3 -1.0000 -0.85649 -1.0783399 -52.882698
4 1 4 0.0000 1.6308901 2.21845 -54.186203
5 1 5 0.0000 3.06382 0.259549 -54.991997
6 1 4 0.0000 1.37226 5.2174196 -54.765
7 1 3 -1.0000 -2.17051 5.81975 -55.1412
8 1 4 0.0000 4.18763 5.87094 -56.249
9 1 6 0.0000 6.50953 4.13598 -54.948402
10 1 1 1.0000 7.81362 1.8503401 -55.7061
11 1 4 0.0000 3.8340802 4.7444 -59.2134
12 1 7 0.0000 1.57057 7.2807302 -60.219696
13 1 6 0.0000 -1.7504201 6.35257 -60.503403
14 1 1 1.0000 -4.17167 6.30938 -59.5289
15 1 7 0.0000 3.44147 9.83103 -59.3571
16 1 6 0.0000 1.25001 10.4819 -56.5978
17 1 1 1.0000 -0.11964901 9.7889 -54.1026
18 1 7 0.0000 5.96308 9.39353 -61.5126
19 1 8 0.0000 8.16539 7.2993097 -60.1515
20 1 9 0.0000 4.43909 10.1463995 -64.2949
21 1 10 0.0000 5.2212296 9.39801 -66.9937
22 1 10 0.0000 5.20362 9.6587 -69.8271
23 1 10 0.0000 7.3393397 9.14649 -68.7974
24 1 9 0.0000 3.6552598 13.1583 -63.779503
25 1 5 0.0000 1.02256 13.5526 -62.771904
26 1 9 0.0000 6.3347397 14.5722 -63.4262
27 1 11 0.0000 5.20924 17.4809 -65.5822
28 1 9 0.0000 7.83099 13.632601 -66.0986
29 1 6 0.0000 9.60413 10.844601 -64.812996
30 1 1 1.0000 10.9682 9.021729 -65.4957
31 1 12 0.0000 6.65668 14.1147995 -69.257
32 1 13 0.0000 8.07642 13.5306 -71.9046
33 1 7 0.0000 3.7697601 14.2206 -68.8836
34 1 12 0.0000 1.5913799 12.7684 -68.2984
35 1 11 0.0000 -1.19894 15.682699 -68.1027
36 1 12 0.0000 -0.0771929 12.2678 -71.2086
37 1 13 0.0000 -1.3909 15.1855 -71.5178
38 1 2 0.0000 -1.16344 9.05566 -70.8683
39 1 14 0.0000 1.49613 7.38675 -71.8012
40 1 15 0.0000 3.18122 5.73785 -72.1421
41 1 15 0.0000 3.46943 8.02728 -73.6828
42 1 2 0.0000 -3.89785 7.24397 -71.6428
43 1 16 0.0000 -4.96376 7.98315 -73.9386
44 1 2 0.0000 -4.63455 6.1116896 -68.2426
45 1 5 0.0000 -3.0704598 4.41282 -67.2956
46 1 2 0.0000 -7.32168 6.23085 -65.4082
47 1 3 -1.0000 -5.82855 9.14107 -62.8577
48 1 12 0.0000 -10.030001 3.5874999 -64.386505
49 1 6 0.0000 -11.7936 2.63902 -61.5689
50 1 1 1.0000 -11.3298 1.63875 -58.569798
51 1 12 0.0000 -12.287701 5.28983 -66.3396
52 1 2 0.0000 -9.12633 7.81553 -66.8676
53 1 2 0.0000 -11.0647 10.198 -66.0003
54 1 6 0.0000 -10.864 8.9053 -62.6602
55 1 1 1.0000 -9.47337 7.4309597 -60.425602
56 1 2 0.0000 -9.36701 12.9623995 -69.2909
57 1 14 0.0000 -10.3088 10.6217 -71.342
58 1 15 0.0000 -10.1502 8.51589 -73.1916
59 1 15 0.0000 -12.0802 8.55237 -71.3453
60 1 2 0.0000 -5.4496803 12.6119995 -71.5173
61 1 6 0.0000 -4.81628 11.4225 -68.5746
62 1 1 1.0000 -3.36092 11.198 -66.1063
63 1 2 0.0000 -3.57023 12.288199 -75.147
64 1 16 0.0000 -3.6064 14.5082 -76.228195
65 1 2 0.0000 -0.903847 10.131201 -75.8229
66 1 11 0.0000 0.240859 7.13666 -76.6582
67 1 6 0.0000 1.4921799 6.23339 -79.022896
68 1 2 0.0000 -1.11075 4.42154 -74.9581
69 1 2 0.0000 -3.94067 3.91882 -76.5669
70 1 2 0.0000 -2.10253 2.38342 -72.083405
71 1 8 0.0000 0.314586 2.71024 -69.7996
72 1 12 0.0000 -5.66669 2.59375 -74.0652
73 1 14 0.0000 -7.31309 2.91785 -71.36
74 1 15 0.0000 -8.94019 4.85385 -70.633
75 1 15 0.0000 -8.08202 2.93903 -68.936
76 1 12 0.0000 -7.70891 -1.02705 -73.7011
77 1 2 0.0000 -5.2915 -1.9381499 -71.2034
78 1 8 0.0000 -4.22302 -0.285902 -68.5312
79 1 12 0.0000 -5.47807 -5.40656 -70.528595
80 1 10 0.0000 -4.60599 -5.2976 -67.468
81 1 10 0.0000 -3.95744 -4.3930397 -65.176605
82 1 10 0.0000 -5.63997 -6.3429 -65.3568
83 1 12 0.0000 -5.70322 -8.2029 -73.1395
84 1 2 0.0000 -4.46035 -6.6200695 -76.9955
85 1 7 0.0000 -4.08628 -3.66987 -75.8218
86 1 1 1.0000 -4.10265 -0.816834 -77.2681
87 1 2 0.0000 -3.3720698 -7.70076 -79.966
88 1 6 0.0000 -0.723008 -9.64212 -80.4964
89 1 1 1.0000 1.07704 -11.577701 -80.1154
90 1 12 0.0000 -1.75015 -4.54669 -80.7927
91 1 16 0.0000 -0.122585 -3.97652 -78.5647
92 1 12 0.0000 -4.26349 -2.6979601 -81.9857
93 1 2 0.0000 -7.6833897 -1.6786001 -80.684204
94 1 11 0.0000 -9.13012 -4.0876 -77.6997
95 1 11 0.0000 -8.708361 1.18652 -77.9842
96 1 7 0.0000 -10.2561 3.74444 -75.6503
97 1 6 0.0000 -13.2439 4.1843 -75.247
98 1 12 0.0000 -8.71449 6.2528095 -77.4376
99 1 2 0.0000 -7.89837 4.44019 -80.20509
100 1 10 0.0000 -7.44801 6.89712 -82.1424
101 1 10 0.0000 -6.83632 7.73242 -84.8613
102 1 10 0.0000 -6.44166 9.3054495 -82.978294
103 1 2 0.0000 -4.65458 2.35055 -81.320404
104 1 16 0.0000 -5.42776 2.03039 -83.9394
105 1 2 0.0000 -2.35871 5.28625 -81.6617
106 1 14 0.0000 -2.95048 7.73767 -80.6063
107 1 14 0.0000 -4.2912 8.86289 -78.7068
108 1 15 0.0000 -2.9402199 10.3229 -80.4321
109 1 2 0.0000 -1.8310701 4.97018 -85.6544
110 1 16 0.0000 -2.7266202 6.6308 -87.3721
111 1 4 0.0000 1.05153 3.08356 -85.351105
112 1 3 -1.0000 2.59268 1.78751 -87.384796
113 1 7 0.0000 2.25665 2.31379 -82.44859
114 1 12 0.0000 -0.0709484 0.43882 -81.6288
115 1 2 0.0000 0.246688 1.1489 -78.339096
116 1 12 0.0000 0.18362099 -1.717 -84.25279
117 1 6 0.0000 -1.82237 -1.12108 -86.7249
118 1 1 1.0000 -1.4540399 0.557852 -88.8688
119 1 9 0.0000 3.0427 -2.74962 -83.9766
120 1 2 0.0000 4.42913 -2.64426 -87.1151
121 1 2 0.0000 5.2336698 -4.68454 -82.3271
122 1 6 0.0000 8.34853 -4.86375 -80.955
123 1 1 1.0000 10.2642 -5.02139 -78.7442
124 1 2 0.0000 3.6648 -7.0300603 -79.9887
125 1 2 0.0000 2.07764 -8.03952 -76.5377
126 1 8 0.0000 3.89269 -10.264 -75.8566
127 1 2 0.0000 -0.494595 -8.78652 -73.8573
128 1 16 0.0000 -1.47677 -10.9748 -74.9068
129 1 2 0.0000 -0.238141 -8.42513 -70.591
130 1 14 0.0000 -0.624157 -5.20693 -70.7967
131 1 17 0.0000 -0.471344 -2.41688 -71.4953
132 1 10 0.0000 -0.0357015 -4.43126 -73.1131
133 1 10 0.0000 0.362182 -1.74922 -73.8081
134 1 2 0.0000 0.484395 -8.69901 -66.8508
135 1 6 0.0000 3.1578498 -11.2042 -66.9771
136 1 1 1.0000 5.07575 -11.6684 -64.8092
137 1 4 0.0000 2.66412 -6.3537197 -65.8927
138 1 3 -1.0000 5.7992 -7.65926 -62.8155
139 1 4 0.0000 5.12538 -7.43281 -67.445206
140 1 3 -1.0000 6.27801 -7.61409 -63.113197
141 1 4 0.0000 4.25041 -6.09058 -70.402596
142 1 16 0.0000 4.47038 -7.73913 -72.147
143 1 12 0.0000 4.32371 -3.12284 -69.4254
144 1 8 0.0000 3.67607 -0.746466 -70.1995
145 1 9 0.0000 7.45364 -3.0265799 -68.721
146 1 13 0.0000 9.768721 -5.7131796 -66.6971
147 1 9 0.0000 8.49378 -3.89396 -71.686104
148 1 3 -1.0000 11.5634 -3.7392802 -74.2163
149 1 9 0.0000 7.6379104 -1.0661199 -73.1223
150 1 14 0.0000 5.50468 0.817377 -74.3316
151 1 14 0.0000 4.4783 2.93131 -76.009796
152 1 15 0.0000 3.2002199 1.49392 -74.1672
153 1 12 0.0000 10.106 0.86654997 -71.3137
154 1 8 0.0000 7.2515397 2.49208 -69.7792
155 1 12 0.0000 12.6543 1.03479 -72.854095
156 1 3 -1.0000 16.2043 0.21027601 -71.5443
157 1 2 0.0000 12.6208 4.64155 -74.3815
158 1 2 0.0000 15.395 4.7256403 -75.304
159 1 7 0.0000 9.7868 3.7768302 -75.598404
160 1 6 0.0000 7.9314 5.41575 -73.8395
161 1 12 0.0000 11.1867 3.30709 -78.586105
162 1 6 0.0000 12.487801 5.9832697 -79.3323
163 1 1 1.0000 11.939899 8.47517 -78.2557
164 1 12 0.0000 11.5686 0.101831 -78.762596
165 1 6 0.0000 14.6986 -0.274385 -78.191696
166 1 1 1.0000 15.529799 -1.4089 -75.7766
167 1 12 0.0000 8.42733 -0.41752 -78.1842
168 1 14 0.0000 6.26545 -3.1248302 -77.4413
169 1 14 0.0000 4.25557 -3.63555 -75.461105
170 1 15 0.0000 6.23271 -5.20529 -75.8817
171 1 2 0.0000 6.46992 0.377699 -80.564804
172 1 8 0.0000 4.25878 -1.38197 -79.6104
173 1 7 0.0000 6.9451303 0.819341 -83.7154
174 1 6 0.0000 8.922359 -1.4093 -84.439606
175 1 12 0.0000 9.37138 3.20757 -83.3702
176 1 2 0.0000 6.82632 4.82122 -80.795204
177 1 16 0.0000 6.9341497 6.28295 -78.7346
178 1 2 0.0000 4.34655 6.33357 -82.897194
179 1 6 0.0000 5.7477303 5.3038 -85.618095
180 1 1 1.0000 6.58484 3.89144 -87.900696
181 1 2 0.0000 1.9849899 9.17059 -83.4315
182 1 13 0.0000 2.41668 7.98698 -87.2027
183 1 2 0.0000 1.75561 11.3262 -80.4374
184 1 8 0.0000 0.37831002 13.762899 -79.6816
185 1 2 0.0000 3.9205399 11.065001 -77.6792
186 1 10 0.0000 2.99752 13.7744 -76.4108
187 1 10 0.0000 3.12757 15.39 -74.0514
188 1 10 0.0000 1.02957 15.8937 -75.577
189 1 11 0.0000 6.9322596 11.0079 -76.6149
190 1 2 0.0000 9.75004 9.60211 -73.8459
191 1 2 0.0000 11.4535 7.8790402 -70.5481
192 1 8 0.0000 12.8146 10.6074 -69.4312
193 1 2 0.0000 12.3356 4.5132 -68.8392
194 1 6 0.0000 14.9974 4.39541 -69.9026
195 1 1 1.0000 17.3293 4.1525598 -69.477905
196 1 2 0.0000 15.493401 1.20626 -66.0427
197 1 6 0.0000 17.8722 2.77679 -64.0301
198 1 1 1.0000 17.7549 5.2419 -62.0074
199 1 4 0.0000 14.660601 -0.78191197 -63.2943
200 1 6 0.0000 12.252199 -3.36187 -62.942398
201 1 1 1.0000 9.19416 -4.2430696 -61.431396
202 1 4 0.0000 13.024301 1.3521899 -61.203197
203 1 16 0.0000 12.0691 0.86556304 -58.8837
204 1 4 0.0000 11.9836 3.33933 -63.439297
205 1 3 -1.0000 14.7436 6.41159 -65.1318
206 1 4 0.0000 10.4731 1.21991 -65.3585
207 1 7 0.0000 11.4856 -1.2848499 -67.4935
208 1 1 1.0000 13.357 -3.1908 -70.0311
209 1 7 0.0000 8.78989 -0.0296712 -63.2543
210 1 3 -1.0000 7.1205597 -1.03552 -58.990204
211 1 7 0.0000 7.35893 2.4661999 -62.052597
212 1 3 -1.0000 6.67418 -0.127691 -59.499798
213 1 7 0.0000 5.75671 3.20418 -65.0302
214 1 8 0.0000 8.15791 5.4726305 -66.172195
215 1 7 0.0000 4.36967 0.398031 -65.0505
216 1 8 0.0000 5.31543 -2.6424198 -64.8172
217 1 13 0.0000 2.84431 0.95221996 -62.1538
218 1 7 0.0000 0.627131 2.9865 -63.598198
219 1 14 0.0000 0.876629 5.61814 -64.9262
220 1 14 0.0000 2.13728 6.4857297 -66.929596
221 1 15 0.0000 0.0162472 7.8442 -65.7508
222 1 7 0.0000 -0.698822 0.54068 -65.2128
223 1 8 0.0000 0.241654 -2.25568 -66.741196
224 1 7 0.0000 -1.64224 -1.1870201 -62.4954
225 1 6 0.0000 0.948408 -3.4144602 -62.095497
226 1 1 1.0000 3.80087 -3.89706 -60.8938
227 1 9 0.0000 -3.0669901 1.0646601 -61.069103
228 1 6 0.0000 -1.97886 1.92564 -58.358303
229 1 1 1.0000 -4.1666703 1.63266 -55.9096
230 1 7 0.0000 -5.02756 2.06675 -63.593002
231 1 9 0.0000 -6.6497397 -0.601718 -63.790302
232 1 16 0.0000 -8.38307 -1.60932 -65.9441
233 1 9 0.0000 -7.8532896 -0.24225199 -61.0033
234 1 2 0.0000 -8.07951 -2.41456 -58.7717
235 1 3 -1.0000 -7.11199 2.8726 -59.8686
236 1 3 -1.0000 -7.9843197 4.4899697 -57.190598

Bonds

1 1 1 2
2 1 31 33
3 1 33 34
4 1 34 36
5 1 36 38
6 1 38 42
7 1 42 44
8 1 44 46
9 1 46 48
10 1 48 51
11 1 51 52
12 1 52 53
13 1 53 56
14 1 56 60
15 1 60 63
16 1 63 65
17 1 65 66
18 1 66 68
19 1 68 70
20 1 70 72
21 1 72 76
22 1 76 77
23 1 77 79
24 1 79 83
25 1 83 84
26 1 84 87
27 1 87 90
28 1 90 92
29 1 92 93
30 1 93 95
31 1 95 96
32 1 96 98
33 1 98 99
34 1 99 103
35 1 103 105
36 1 105 109
37 1 121 124
38 1 124 125
39 1 125 127
40 1 127 129
41 1 129 134
42 1 153 155
43 1 155 157
44 1 171 173
45 1 173 175
46 1 175 176
47 1 176 178
48 1 178 181
49 1 181 183
50 1 183 185
51 1 185 189
52 1 189 190
53 1 190 191
54 1 191 193
55 1 193 196
56 2 2 3
57 3 6 7
58 4 8 9
59 5 9 10
60 4 12 13
61 5 13 14
62 4 15 16
63 5 16 17
64 6 20 21
65 3 26 27
66 4 28 29
67 5 29 30
68 6 31 32
69 3 34 35
70 6 36 37
71 2 38 39
72 3 46 47
73 4 48 49
74 5 49 50
75 4 53 54
76 5 54 55
77 2 56 57
78 4 60 61
79 5 61 62
80 7 66 67
81 8 68 69
82 9 70 71
83 2 72 73
84 9 77 78
85 6 79 80
86 4 84 85
87 10 85 86
88 4 87 88
89 5 88 89
90 3 93 94
91 7 96 97
92 6 99 100
93 8 105 106
94 2 111 112
95 8 114 115
96 4 116 117
97 5 117 118
98 8 119 120
99 4 121 122
100 5 122 123
101 11 129 130
102 4 134 135
103 5 135 136
104 3 137 138
105 3 139 140
106 9 143 144
107 12 145 146
108 3 147 148
109 8 149 150
110 9 153 154
111 3 155 156
112 8 157 158
113 7 159 160
114 4 161 162
115 5 162 163
116 4 164 165
117 5 165 166
118 8 167 168
119 7 173 174
120 4 178 179
121 5 179 180
122 12 181 182
123 6 185 186
124 4 193 194
125 5 194 195
126 4 196 197
127 5 197 198
128 4 199 200
129 5 200 201
130 3 204 205
131 4 206 207
132 10 207 208
133 3 209 210
134 2 211 212
135 9 213 214
136 8 218 219
137 9 222 223
138 4 224 225
139 5 225 226
140 4 227 228
141 5 228 229
142 8 233 234
143 3 235 236
144 13 2 4
145 14 4 6
146 14 6 8
147 14 8 11
148 14 11 12
149 14 12 15
150 14 15 18
151 14 18 20
152 14 20 24
153 14 24 26
154 14 26 28
155 13 28 31
156 13 109 111
157 14 111 113
158 14 113 114
159 14 114 116
160 14 116 119
161 13 119 121
162 13 134 137
163 14 137 139
164 14 139 141
165 14 141 143
166 14 143 145
167 14 145 147
168 14 147 149
169 13 149 153
170 13 157 159
171 14 159 161
172 14 161 164
173 14 164 167
174 13 167 171
175 13 196 199
176 14 199 202
177 14 202 204
178 14 204 206
179 14 206 209
180 14 209 211
181 14 211 213
182 14 213 215
183 14 215 217
184 14 217 218
185 14 218 222
186 14 222 224
187 14 224 227
188 14 227 230
189 14 230 231
190 14 231 233
191 13 233 235
192 15 4 5
193 14 18 19
194 16 21 22
195 16 21 23
196 16 22 23
197 15 24 25
198 16 39 40
199 16 39 41
200 16 40 41
201 17 42 43
202 15 44 45
203 16 57 58
204 16 57 59
205 16 58 59
206 17 63 64
207 16 73 74
208 16 73 75
209 16 74 75
210 16 80 81
211 16 80 82
212 16 81 82
213 17 90 91
214 16 100 101
215 16 100 102
216 16 101 102
217 17 103 104
218 16 106 107
219 16 106 108
220 16 107 108
221 17 109 110
222 14 125 126
223 17 127 128
224 16 130 131
225 16 130 132
226 16 131 132
227 16 131 133
228 16 132 133
229 17 141 142
230 16 150 151
231 16 150 152
232 16 151 152
233 16 168 169
234 16 168 170
235 16 169 170
236 14 171 172
237 17 176 177
238 14 183 184
239 16 186 187
240 16 186 188
241 16 187 188
242 14 191 192
243 17 202 203
244 14 215 216
245 16 219 220
246 16 219 221
247 16 220 221
248 17 231 232

Angles

1 1 1 2 4
2 1 2 4 6
3 2 4 6 8
4 2 6 8 11
5 2 8 11 12
6 2 11 12 15
7 2 12 15 18
8 2 15 18 20
9 2 18 20 24
10 2 20 24 26
11 2 24 26 28
12 3 26 28 31
13 3 28 31 33
14 3 31 33 34
15 3 33 34 36
16 3 34 36 38
17 3 36 38 42
18 1 38 42 44
19 1 42 44 46
20 3 44 46 48
21 3 46 48 51
22 3 48 51 52
23 3 51 52 53
24 1 52 53 56
25 1 53 56 60
26 1 56 60 63
27 1 60 63 65
28 4 63 65 66
29 1 65 66 68
30 1 66 68 70
31 3 68 70 72
32 3 70 72 76
33 3 72 76 77
34 3 76 77 79
35 3 77 79 83
36 3 79 83 84
37 3 83 84 87
38 3 84 87 90
39 3 87 90 92
40 3 90 92 93
41 3 92 93 95
42 1 93 95 96
43 3 95 96 98
44 3 96 98 99
45 3 98 99 103
46 1 99 103 105
47 1 103 105 109
48 1 105 109 111
49 1 109 111 113
50 2 111 113 114
51 2 113 114 116
52 2 114 116 119
53 1 116 119 121
54 1 119 121 124
55 1 121 124 125
56 1 124 125 127
57 1 125 127 129
58 1 127 129 134
59 1 129 134 137
60 4 134 137 139
61 2 137 139 141
62 2 139 141 143
63 2 141 143 145
64 2 143 145 147
65 2 145 147 149
66 3 147 149 153
67 3 149 153 155
68 3 153 155 157
69 3 155 157 159
70 5 157 159 161
71 5 159 161 164
72 2 161 164 167
73 4 164 167 171
74 4 167 171 173
75 3 171 173 175
76 3 173 175 176
77 3 175 176 178
78 1 176 178 181
79 1 178 181 183
80 1 181 183 185
81 1 183 185 189
82 1 185 189 190
83 1 189 190 191
84 1 190 191 193
85 1 191 193 196
86 1 193 196 199
87 4 196 199 202
88 2 199 202 204
89 2 202 204 206
90 2 204 206 209
91 2 206 209 211
92 2 209 211 213
93 2 211 213 215
94 2 213 215 217
95 2 215 217 218
96 2 217 218 222
97 2 218 222 224
98 2 222 224 227
99 2 224 227 230
100 2 227 230 231
101 2 230 231 233
102 1 231 233 235
103 6 1 2 3
104 6 2 4 5
105 6 4 6 7
106 6 6 8 9
107 6 11 12 13
108 6 12 15 16
109 6 15 18 19
110 6 18 20 21
111 6 20 24 25
112 6 24 26 27
113 6 26 28 29
114 6 28 31 32
115 6 33 34 35
116 6 34 36 37
117 6 36 38 39
118 6 38 42 43
119 6 42 44 45
120 6 44 46 47
121 6 46 48 49
122 6 52 53 54
123 6 53 56 57
124 6 56 60 61
125 6 60 63 64
126 6 65 66 67
127 6 66 68 69
128 6 68 70 71
129 6 70 72 73
130 6 76 77 78
131 6 77 79 80
132 6 83 84 85
133 6 84 87 88
134 6 87 90 91
135 6 92 93 94
136 6 95 96 97
137 6 98 99 100
138 6 99 103 104
139 6 103 105 106
140 6 105 109 110
141 6 109 111 112
142 6 113 114 115
143 6 114 116 117
144 6 116 119 120
145 6 119 121 122
146 6 124 125 126
147 6 125 127 128
148 6 127 129 130
149 6 129 134 135
150 6 134 137 138
151 6 137 139 140
152 6 139 141 142
153 6 141 143 144
154 6 143 145 146
155 6 145 147 148
156 6 147 149 150
157 6 149 153 154
158 6 153 155 156
159 6 155 157 158
160 6 157 159 160
161 6 159 161 162
162 6 161 164 165
163 6 164 167 168
164 6 167 171 172
165 6 171 173 174
166 6 175 176 177
167 6 176 178 179
168 6 178 181 182
169 6 181 183 184
170 6 183 185 186
171 6 190 191 192
172 6 191 193 194
173 6 193 196 197
174 6 196 199 200
175 6 199 202 203
176 6 202 204 205
177 6 204 206 207
178 6 206 209 210
179 6 209 211 212
180 6 211 213 214
181 6 213 215 216
182 6 217 218 219
183 6 218 222 223
184 6 222 224 225
185 6 224 227 228
186 6 230 231 232
187 6 231 233 234
188 6 233 235 236
189 7 8 9 10
190 7 12 13 14
191 7 15 16 17
192 8 20 21 22
193 8 20 21 23
194 7 28 29 30
195 8 38 39 40
196 8 38 39 41
197 7 48 49 50
198 7 53 54 55
199 8 56 57 58
200 8 56 57 59
201 7 60 61 62
202 8 72 73 74
203 8 72 73 75
204 8 79 80 81
205 8 79 80 82
206 7 84 85 86
207 7 87 88 89
208 8 99 100 101
209 8 99 100 102
210 8 105 106 107
211 8 105 106 108
212 7 116 117 118
213 7 121 122 123
214 9 129 130 131
215 10 129 130 132
216 7 134 135 136
217 8 149 150 151
218 8 149 150 152
219 7 161 162 163
220 7 164 165 166
221 8 167 168 169
222 8 167 168 170
223 7 178 179 180
224 8 185 186 187
225 8 185 186 188
226 7 193 194 195
227 7 196 197 198
228 7 199 200 201
229 7 206 207 208
230 8 218 219 220
231 8 218 219 221
232 7 224 225 226
233 7 227 228 229

Dihedrals

1 1 4 6 8 11
2 1 6 8 11 12
3 1 8 11 12 15
4 1 11 12 15 18
5 1 12 15 18 20
6 1 15 18 20 24
7 1 18 20 24 26
8 1 20 24 26 28
9 1 111 113 114 116
10 1 113 114 116 119
11 1 137 139 141 143
12 1 139 141 143 145
13 1 141 143 145 147
14 1 143 145 147 149
15 1 159 161 164 167
16 1 199 202 204 206
17 1 202 204 206 209
18 1 204 206 209 211
19 1 206 209 211 213
20 1 209 211 213 215
21 1 211 213 215 217
22 1 213 215 217 218
23 1 215 217 218 222
24 1 217 218 222 224
25 1 218 222 224 227
26 1 222 224 227 230
27 1 224 227 230 231
28 1 227 230 231 233

Impropers

1 1 20 22 23 21
2 1 38 40 41 39
3 1 56 58 59 57
4 1 72 74 75 73
5 1 79 81 82 80
6 1 99 101 102 100
7 1 105 107 108 106
8 1 129 131 132 130
9 2 130 131 133 132
10 1 149 151 152 150
11 1 167 169 170 168
12 1 185 187 188 186
13 1 218 220 221 219

