comment

236 atoms
248 bonds
233 angles
28 dihedrals
13 impropers

17 atom types
17 bond types
10 angle types
1 dihedral types
2 improper types

-40.5 40.5 xlo xhi
-40.5 40.5 ylo yhi
-190.0 190.0 zlo zhi

Masses

1 72.0
2 72.0
3 72.0
4 72.0
5 72.0
6 72.0
7 72.0
8 72.0
9 72.0
10 45.0
11 72.0
12 72.0
13 72.0
14 45.0
15 45.0
16 72.0
17 45.0

PairIJ Coeffs

1 1 1.19503 4.699999999999999
1 2 1.3384336 4.699999999999999
1 3 1.3384336 4.699999999999999
1 4 0.956024 4.699999999999999
1 5 0.478012 4.699999999999999
1 6 0.5497137999999999 4.699999999999999
1 7 0.836521 4.699999999999999
1 8 0.478012 4.699999999999999
1 9 1.19503 4.699999999999999
1 10 0.7409186 4.699999999999999
1 11 1.3384336 4.699999999999999
1 12 1.19503 4.699999999999999
1 13 0.7409186 4.699999999999999
1 14 0.6453162 4.699999999999999
1 15 1.19503 4.699999999999999
1 16 1.19503 4.699999999999999
1 17 0.956024 4.699999999999999
2 2 1.3384336 4.699999999999999
2 3 1.3384336 4.699999999999999
2 4 1.19503 4.699999999999999
2 5 0.5497137999999999 4.699999999999999
2 6 0.6453162 4.699999999999999
2 7 0.836521 4.699999999999999
2 8 0.478012 4.699999999999999
2 9 1.19503 4.699999999999999
2 10 0.7409186 4.699999999999999
2 11 1.3384336 4.699999999999999
2 12 1.19503 4.699999999999999
2 13 0.7409186 4.699999999999999
2 14 0.6453162 4.699999999999999
2 15 1.3384336 4.699999999999999
2 16 1.3384336 4.699999999999999
2 17 1.19503 4.699999999999999
3 3 1.19503 4.699999999999999
3 4 1.19503 4.699999999999999
3 5 0.478012 4.699999999999999
3 6 0.5497137999999999 4.699999999999999
3 7 0.836521 4.699999999999999
3 8 0.478012 4.699999999999999
3 9 0.956024 4.699999999999999
3 10 0.7409186 4.699999999999999
3 11 1.3384336 4.699999999999999
3 12 1.19503 4.699999999999999
3 13 0.7409186 4.699999999999999
3 14 0.6453162 4.699999999999999
3 15 1.19503 4.699999999999999
3 16 1.19503 4.699999999999999
3 17 1.19503 4.699999999999999
4 4 0.956024 4.699999999999999
4 5 0.6453162 4.699999999999999
4 6 0.6453162 4.699999999999999
4 7 0.836521 4.699999999999999
4 8 0.6453162 4.699999999999999
4 9 1.075527 4.699999999999999
4 10 0.836521 4.699999999999999
4 11 0.956024 4.699999999999999
4 12 1.075527 4.699999999999999
4 13 0.836521 4.699999999999999
4 14 0.7409186 4.699999999999999
4 15 1.075527 4.699999999999999
4 16 1.075527 4.699999999999999
4 17 0.956024 4.699999999999999
5 5 0.836521 4.699999999999999
5 6 0.836521 4.699999999999999
5 7 0.7409186 4.699999999999999
5 8 0.836521 4.699999999999999
5 9 0.6453162 4.699999999999999
5 10 0.7409186 4.699999999999999
5 11 0.5497137999999999 4.699999999999999
5 12 0.6453162 4.699999999999999
5 13 0.7409186 4.699999999999999
5 14 0.7409186 4.699999999999999
5 15 0.7409186 4.699999999999999
5 16 0.7409186 4.699999999999999
5 17 0.6453162 4.699999999999999
6 6 0.836521 4.699999999999999
6 7 0.836521 4.699999999999999
6 8 0.836521 4.699999999999999
6 9 0.6453162 4.699999999999999
6 10 0.836521 4.699999999999999
6 11 0.6453162 4.699999999999999
6 12 0.6453162 4.699999999999999
6 13 0.836521 4.699999999999999
6 14 0.836521 4.699999999999999
6 15 0.836521 4.699999999999999
6 16 0.836521 4.699999999999999
6 17 0.6453162 4.699999999999999
7 7 0.836521 4.699999999999999
7 8 0.6453162 4.699999999999999
7 9 0.836521 4.699999999999999
7 10 0.836521 4.699999999999999
7 11 0.836521 4.699999999999999
7 12 0.836521 4.699999999999999
7 13 0.836521 4.699999999999999
7 14 0.836521 4.699999999999999
7 15 0.956024 4.699999999999999
7 16 0.956024 4.699999999999999
7 17 0.836521 4.699999999999999
8 8 0.836521 4.699999999999999
8 9 0.6453162 4.699999999999999
8 10 0.7409186 4.699999999999999
8 11 0.478012 4.699999999999999
8 12 0.6453162 4.699999999999999
8 13 0.7409186 4.699999999999999
8 14 0.7409186 4.699999999999999
8 15 0.6453162 4.699999999999999
8 16 0.6453162 4.699999999999999
8 17 0.6453162 4.699999999999999
9 9 0.956024 4.699999999999999
9 10 0.836521 4.699999999999999
9 11 0.956024 4.699999999999999
9 12 1.075527 4.699999999999999
9 13 0.836521 4.699999999999999
9 14 0.7409186 4.699999999999999
9 15 1.075527 4.699999999999999
9 16 1.075527 4.699999999999999
9 17 1.075527 4.699999999999999
10 10 0.62739075 4.3
10 11 0.7409186 4.699999999999999
10 12 0.836521 4.699999999999999
10 13 0.836521 4.699999999999999
10 14 0.62739075 4.3
10 15 0.62739075 4.3
10 16 0.836521 4.699999999999999
10 17 0.62739075 4.3
11 11 1.19503 4.699999999999999
11 12 0.956024 4.699999999999999
11 13 0.7409186 4.699999999999999
11 14 0.6453162 4.699999999999999
11 15 1.075527 4.699999999999999
11 16 1.075527 4.699999999999999
11 17 0.956024 4.699999999999999
12 12 1.075527 4.699999999999999
12 13 0.836521 4.699999999999999
12 14 0.7409186 4.699999999999999
12 15 1.075527 4.699999999999999
12 16 1.075527 4.699999999999999
12 17 1.075527 4.699999999999999
13 13 0.836521 4.699999999999999
13 14 0.836521 4.699999999999999
13 15 0.836521 4.699999999999999
13 16 0.836521 4.699999999999999
13 17 0.836521 4.699999999999999
14 14 0.62739075 4.3
14 15 0.62739075 4.3
14 16 0.836521 4.699999999999999
14 17 0.5556889500000001 4.3
15 15 0.80664525 4.3
15 16 1.075527 4.699999999999999
15 17 0.80664525 4.3
16 16 1.075527 4.699999999999999
16 17 1.075527 4.699999999999999
17 17 0.7170179999999999 4.3

Bond Coeffs

1 1.4937875 3.5
2 8.962725 3.2
3 5.97515 4.0
4 5.97515 3.3000000000000003
5 5.97515 2.8000000000000003
6 8.962725 3.1
7 8.962725 3.0
8 5.97515 3.2
9 8.962725 3.3000000000000003
10 5.97515 3.4000000000000004
11 5.97515 3.0
12 2.987575 4.0
13 11.9503 3.3000000000000003
14 11.9503 3.1
15 11.9503 2.6500000000000004
16 11.9503 2.7
17 11.9503 2.6

Angle Coeffs

1 2.39006 127
2 83.6521 96
3 2.39006 100
4 2.39006 130
5 11.9503 98
6 2.987575 100
7 2.987575 180
8 5.97515 150
9 5.97515 210
10 5.97515 90

Dihedral Coeffs

1 95.6024 1 -120 0

Improper Coeffs

1 5.97515 0
2 23.9006 0

Atoms

1 1 1 1.0000 1.2549999 -0.027 -48.818
2 1 2 0.0000 0.0826323 0.152911 -50.6634
3 1 3 -1.0000 -0.81035304 -1.0032899 -52.9749
4 1 4 0.0000 1.8650999 2.16626 -54.3392
5 1 5 0.0000 2.6391199 0.195556 -55.706
6 1 4 0.0000 1.48291 5.14248 -54.674103
7 1 3 -1.0000 -1.9231 6.20251 -55.9228
8 1 4 0.0000 4.3241 5.88674 -55.7127
9 1 6 0.0000 7.23921 4.28609 -55.4681
10 1 1 1.0000 7.17371 1.1257501 -55.7177
11 1 4 0.0000 3.75725 4.67454 -59.0295
12 1 7 0.0000 1.67471 6.79661 -60.0029
13 1 6 0.0000 -1.5965401 6.4496703 -61.3266
14 1 1 1.0000 -4.26235 6.5069904 -60.1026
15 1 7 0.0000 3.48847 9.50274 -59.363297
16 1 6 0.0000 2.16578 11.167001 -56.5543
17 1 1 1.0000 0.436933 9.96756 -54.7319
18 1 7 0.0000 5.9774203 8.97569 -61.4571
19 1 8 0.0000 8.54266 7.22878 -60.5328
20 1 9 0.0000 4.37172 9.45606 -64.2976
21 1 10 0.0000 4.98869 9.15537 -67.4089
22 1 10 0.0000 4.33818 9.7012005 -70.1174
23 1 10 0.0000 6.8559904 8.64247 -69.2308
24 1 9 0.0000 3.50391 12.6380005 -63.807102
25 1 5 0.0000 1.66272 14.2437 -64.1028
26 1 9 0.0000 6.3166304 13.8864 -63.1032
27 1 11 0.0000 5.9039803 17.3745 -64.7594
28 1 9 0.0000 7.77121 13.1103 -65.9785
29 1 6 0.0000 9.431621 10.1588 -65.4673
30 1 1 1.0000 11.7108 9.61737 -64.0904
31 1 12 0.0000 6.81741 13.965799 -69.0058
32 1 13 0.0000 8.93525 14.348801 -71.161896
33 1 7 0.0000 3.66766 14.351 -68.6518
34 1 12 0.0000 0.97064304 12.508499 -68.3578
35 1 11 0.0000 -1.32465 15.8663 -68.7946
36 1 12 0.0000 -0.118046 12.2537 -71.683105
37 1 13 0.0000 -0.770919 15.7192 -71.3631
38 1 2 0.0000 -0.41705102 9.10198 -71.4582
39 1 14 0.0000 1.9198 7.60834 -72.706
40 1 15 0.0000 3.6564498 5.83396 -72.5674
41 1 15 0.0000 4.1473904 7.8126597 -74.0095
42 1 2 0.0000 -3.1897101 8.02429 -71.279205
43 1 16 0.0000 -4.75458 8.32071 -73.4952
44 1 2 0.0000 -4.60777 6.91823 -68.5558
45 1 5 0.0000 -3.18972 4.85908 -67.79
46 1 2 0.0000 -6.93134 6.6655498 -65.008705
47 1 3 -1.0000 -5.8316803 9.93591 -62.753902
48 1 12 0.0000 -10.784901 4.33282 -64.1885
49 1 6 0.0000 -11.9666 2.44664 -61.5523
50 1 1 1.0000 -11.5205 1.85579 -58.747902
51 1 12 0.0000 -13.134299 5.25522 -66.5264
52 1 2 0.0000 -9.568521 7.9558997 -67.2288
53 1 2 0.0000 -10.4727 10.763901 -66.134
54 1 6 0.0000 -10.7623005 9.29699 -62.8248
55 1 1 1.0000 -9.49095 7.57525 -60.8434
56 1 2 0.0000 -8.891231 12.8865 -69.8879
57 1 14 0.0000 -10.3449 10.6787 -71.9243
58 1 15 0.0000 -9.31631 8.10612 -72.0062
59 1 15 0.0000 -11.921801 8.40685 -71.8282
60 1 2 0.0000 -5.5617704 13.2868 -71.4145
61 1 6 0.0000 -4.13806 12.1041 -69.0694
62 1 1 1.0000 -3.8623 11.2526 -66.603096
63 1 2 0.0000 -3.51339 12.7744 -75.4655
64 1 16 0.0000 -4.2949 14.8914 -76.6364
65 1 2 0.0000 -0.96795905 10.5247 -76.7929
66 1 11 0.0000 0.00455246 7.13516 -77.0073
67 1 6 0.0000 1.37238 6.2949 -79.1699
68 1 2 0.0000 -0.97244096 4.55764 -74.9872
69 1 2 0.0000 -4.02626 4.38374 -76.6707
70 1 2 0.0000 -2.60113 2.75492 -71.869705
71 1 8 0.0000 0.277275 2.46721 -70.2009
72 1 12 0.0000 -5.8728304 2.79245 -74.215996
73 1 14 0.0000 -7.30695 3.64872 -71.4657
74 1 15 0.0000 -9.62638 3.93458 -70.6547
75 1 15 0.0000 -7.6211205 3.1450999 -69.0577
76 1 12 0.0000 -7.52842 -1.17564 -73.388504
77 1 2 0.0000 -5.45548 -2.0920799 -71.0213
78 1 8 0.0000 -4.13925 -0.422423 -68.713394
79 1 12 0.0000 -5.75314 -5.0905 -70.0953
80 1 10 0.0000 -5.24776 -5.87637 -67.2013
81 1 10 0.0000 -4.16714 -5.1208696 -65.0885
82 1 10 0.0000 -6.3103495 -6.76374 -65.0207
83 1 12 0.0000 -5.16796 -7.8854504 -72.8723
84 1 2 0.0000 -4.35257 -6.33872 -75.9171
85 1 7 0.0000 -3.65973 -3.7582703 -75.735405
86 1 1 1.0000 -2.9296699 -0.77869403 -75.5374
87 1 2 0.0000 -3.79163 -7.77946 -79.0242
88 1 6 0.0000 -0.729452 -9.01378 -80.2792
89 1 1 1.0000 -0.80955803 -11.620899 -81.2908
90 1 12 0.0000 -1.9028699 -4.08935 -79.9326
91 1 16 0.0000 0.314215 -3.8553598 -78.7783
92 1 12 0.0000 -5.13654 -3.35793 -81.0253
93 1 2 0.0000 -6.1078205 -1.17758 -79.0048
94 1 11 0.0000 -8.86434 -3.5834699 -77.5097
95 1 11 0.0000 -8.3571 1.5426899 -79.0292
96 1 7 0.0000 -10.4 4.20683 -76.3264
97 1 6 0.0000 -11.981699 2.4809601 -74.770294
98 1 12 0.0000 -8.367451 6.84969 -77.3923
99 1 2 0.0000 -7.84334 5.3682604 -80.681496
100 1 10 0.0000 -7.41803 7.5657396 -82.887
101 1 10 0.0000 -5.66356 7.94945 -84.8375
102 1 10 0.0000 -6.94673 9.81045 -84.3777
103 1 2 0.0000 -4.51999 3.1718001 -81.7387
104 1 16 0.0000 -5.53615 1.8396101 -83.854904
105 1 2 0.0000 -1.84237 5.67496 -82.3336
106 1 14 0.0000 -2.97835 8.4716 -81.1767
107 1 14 0.0000 -4.57759 9.48366 -79.3151
108 1 15 0.0000 -3.68251 11.104799 -81.398
109 1 2 0.0000 -1.60832 4.49276 -85.708
110 1 16 0.0000 -2.0239701 6.1285105 -87.938805
111 1 4 0.0000 1.55101 3.14015 -85.7596
112 1 3 -1.0000 2.39507 1.3081899 -88.16049
113 1 7 0.0000 2.28407 2.56357 -82.9762
114 1 12 0.0000 -0.328829 0.75618 -81.9754
115 1 2 0.0000 -0.099013805 1.01458 -79.0702
116 1 12 0.0000 -0.19978401 -1.51563 -84.03459
117 1 6 0.0000 -2.1219 -0.69522905 -86.6586
118 1 1 1.0000 -2.00229 0.276617 -89.0908
119 1 9 0.0000 2.42701 -3.08561 -83.319305
120 1 2 0.0000 3.53343 -3.29766 -86.246704
121 1 2 0.0000 4.65234 -5.3056803 -81.7377
122 1 6 0.0000 8.20516 -4.6925 -81.0189
123 1 1 1.0000 10.6247 -4.82439 -79.3298
124 1 2 0.0000 4.08523 -7.56195 -79.5575
125 1 2 0.0000 2.49603 -7.9333 -76.877
126 1 8 0.0000 2.50579 -11.235 -76.5674
127 1 2 0.0000 -0.0297913 -8.939341 -73.0174
128 1 16 0.0000 -1.2834599 -10.2315 -74.9871
129 1 2 0.0000 -1.1696501 -8.076859 -69.8024
130 1 14 0.0000 -0.890894 -4.95052 -70.7487
131 1 17 0.0000 -0.000865802 -2.6886601 -71.83
132 1 10 0.0000 0.428653 -5.0885496 -73.041504
133 1 10 0.0000 1.10328 -2.65929 -73.955795
134 1 2 0.0000 0.28998 -8.30249 -67.1246
135 1 6 0.0000 3.00123 -10.696 -67.5488
136 1 1 1.0000 4.16207 -11.483601 -65.167
137 1 4 0.0000 2.70309 -6.36074 -66.0106
138 1 3 -1.0000 5.1671 -7.53411 -62.9291
139 1 4 0.0000 5.1550198 -7.63979 -67.7374
140 1 3 -1.0000 6.4471397 -8.04623 -63.557
141 1 4 0.0000 4.6150403 -6.2688 -70.618904
142 1 16 0.0000 4.7642603 -8.04335 -72.331
143 1 12 0.0000 4.85401 -3.1441 -69.3495
144 1 8 0.0000 3.8782 -0.45657098 -70.1494
145 1 9 0.0000 7.77288 -3.1122198 -68.6463
146 1 13 0.0000 10.4765 -6.0282702 -66.4438
147 1 9 0.0000 8.98115 -3.33153 -71.6557
148 1 3 -1.0000 12.0153 -3.9274 -74.555
149 1 9 0.0000 7.80572 -0.44911802 -72.7696
150 1 14 0.0000 5.22867 1.06515 -74.5382
151 1 14 0.0000 4.4162602 2.9843597 -76.210396
152 1 15 0.0000 2.7319198 1.34794 -75.110405
153 1 12 0.0000 9.368469 1.59708 -71.025
154 1 8 0.0000 6.8615003 3.39605 -69.879395
155 1 12 0.0000 12.4869 0.66168797 -72.0157
156 1 3 -1.0000 16.0978 0.0937217 -70.8785
157 1 2 0.0000 13.3043 2.6672802 -73.9643
158 1 2 0.0000 16.4669 3.92524 -73.9171
159 1 7 0.0000 10.1724 3.57741 -75.576904
160 1 6 0.0000 8.498529 5.54287 -74.0066
161 1 12 0.0000 11.381101 3.3923502 -78.680504
162 1 6 0.0000 12.9265995 6.38054 -79.3352
163 1 1 1.0000 13.058701 9.00527 -78.0241
164 1 12 0.0000 11.5317 0.0174827 -78.576195
165 1 6 0.0000 14.6504 -0.37659702 -77.6831
166 1 1 1.0000 15.9086 -1.34987 -75.418
167 1 12 0.0000 8.55076 -0.604186 -77.7716
168 1 14 0.0000 6.7301297 -2.88762 -76.5289
169 1 14 0.0000 4.7626 -3.8922799 -75.1581
170 1 15 0.0000 6.9936 -5.2367 -75.3935
171 1 2 0.0000 6.0761795 0.698056 -79.9526
172 1 8 0.0000 3.9909 -1.17993 -79.2668
173 1 7 0.0000 6.70639 -0.102129 -83.070206
174 1 6 0.0000 8.3823595 -0.81275403 -85.2372
175 1 12 0.0000 9.01703 3.5499902 -82.996704
176 1 2 0.0000 6.47962 4.66964 -80.7674
177 1 16 0.0000 7.25672 6.43497 -78.9155
178 1 2 0.0000 5.13309 6.5353203 -83.4262
179 1 6 0.0000 6.7645197 5.23654 -85.6332
180 1 1 1.0000 6.2753897 2.9692502 -87.0604
181 1 2 0.0000 1.98045 8.86594 -83.2175
182 1 13 0.0000 1.7447699 8.46936 -87.2072
183 1 2 0.0000 2.4247699 11.4202 -80.922806
184 1 8 0.0000 1.18049 14.2542 -80.8744
185 1 2 0.0000 4.66567 11.349899 -77.4991
186 1 10 0.0000 3.2924602 13.456 -76.0689
187 1 10 0.0000 3.70527 15.654499 -74.8949
188 1 10 0.0000 1.31726 15.367001 -76.2754
189 1 11 0.0000 7.64566 10.5571995 -76.6363
190 1 2 0.0000 8.99115 10.100599 -73.8497
191 1 2 0.0000 10.9217 8.06711 -70.9659
192 1 8 0.0000 12.9425 10.2803 -70.3056
193 1 2 0.0000 11.4464 5.3734703 -68.4898
194 1 6 0.0000 14.253599 4.85589 -69.8555
195 1 1 1.0000 16.313301 4.22943 -68.7486
196 1 2 0.0000 15.6348 1.01608 -66.0547
197 1 6 0.0000 17.5471 2.5216298 -63.8813
198 1 1 1.0000 17.520601 3.79994 -61.5015
199 1 4 0.0000 14.4199 -0.923863 -63.7435
200 1 6 0.0000 11.8629 -3.5125499 -62.4869
201 1 1 1.0000 8.75523 -4.6076803 -61.8051
202 1 4 0.0000 12.8546 1.00362 -61.5372
203 1 16 0.0000 11.989201 0.200956 -59.2183
204 1 4 0.0000 11.9495 3.3375201 -63.8077
205 1 3 -1.0000 14.709001 5.9289904 -64.3959
206 1 4 0.0000 10.274 1.07808 -65.6696
207 1 7 0.0000 11.8858 -1.11934 -67.8013
208 1 1 1.0000 13.388 -3.56563 -69.9709
209 1 7 0.0000 8.79013 -0.068666704 -63.447197
210 1 3 -1.0000 6.70248 -1.32005 -59.6281
211 1 7 0.0000 7.0472903 2.47792 -62.410896
212 1 3 -1.0000 6.4671497 -0.491695 -59.846
213 1 7 0.0000 5.58774 2.91213 -65.2204
214 1 8 0.0000 7.0973496 5.74529 -65.518
215 1 7 0.0000 4.18754 -0.056177 -64.857
216 1 8 0.0000 5.3453703 -2.68363 -64.798294
217 1 13 0.0000 2.57033 0.841639 -62.0965
218 1 7 0.0000 0.67277604 2.9214299 -63.614304
219 1 14 0.0000 1.3266801 5.63589 -65.2476
220 1 14 0.0000 2.33985 6.0539002 -67.6987
221 1 15 0.0000 0.739407 7.71484 -66.894394
222 1 7 0.0000 -0.59121096 0.809808 -65.6065
223 1 8 0.0000 0.453458 -2.18404 -67.0217
224 1 7 0.0000 -1.69322 -1.0959901 -63.3786
225 1 6 0.0000 0.467786 -3.34885 -61.964203
226 1 1 1.0000 3.05407 -3.88797 -61.164097
227 1 9 0.0000 -3.25019 1.4238701 -61.6909
228 1 6 0.0000 -2.7974901 1.39415 -58.5767
229 1 1 1.0000 -4.2045097 1.96348 -56.627598
230 1 7 0.0000 -5.36984 2.13803 -64.1964
231 1 9 0.0000 -7.0714803 -0.696572 -64.2703
232 1 16 0.0000 -8.320009 -1.06556 -66.875
233 1 9 0.0000 -7.976 -0.48636702 -61.326298
234 1 2 0.0000 -6.33461 -2.35749 -59.4997
235 1 3 -1.0000 -7.61719 3.05897 -60.5229
236 1 3 -1.0000 -7.9962997 4.7871 -57.4786

Bonds

1 1 1 2
2 1 31 33
3 1 33 34
4 1 34 36
5 1 36 38
6 1 38 42
7 1 42 44
8 1 44 46
9 1 46 48
10 1 48 51
11 1 51 52
12 1 52 53
13 1 53 56
14 1 56 60
15 1 60 63
16 1 63 65
17 1 65 66
18 1 66 68
19 1 68 70
20 1 70 72
21 1 72 76
22 1 76 77
23 1 77 79
24 1 79 83
25 1 83 84
26 1 84 87
27 1 87 90
28 1 90 92
29 1 92 93
30 1 93 95
31 1 95 96
32 1 96 98
33 1 98 99
34 1 99 103
35 1 103 105
36 1 105 109
37 1 121 124
38 1 124 125
39 1 125 127
40 1 127 129
41 1 129 134
42 1 153 155
43 1 155 157
44 1 171 173
45 1 173 175
46 1 175 176
47 1 176 178
48 1 178 181
49 1 181 183
50 1 183 185
51 1 185 189
52 1 189 190
53 1 190 191
54 1 191 193
55 1 193 196
56 2 2 3
57 3 6 7
58 4 8 9
59 5 9 10
60 4 12 13
61 5 13 14
62 4 15 16
63 5 16 17
64 6 20 21
65 3 26 27
66 4 28 29
67 5 29 30
68 6 31 32
69 3 34 35
70 6 36 37
71 2 38 39
72 3 46 47
73 4 48 49
74 5 49 50
75 4 53 54
76 5 54 55
77 2 56 57
78 4 60 61
79 5 61 62
80 7 66 67
81 8 68 69
82 9 70 71
83 2 72 73
84 9 77 78
85 6 79 80
86 4 84 85
87 10 85 86
88 4 87 88
89 5 88 89
90 3 93 94
91 7 96 97
92 6 99 100
93 8 105 106
94 2 111 112
95 8 114 115
96 4 116 117
97 5 117 118
98 8 119 120
99 4 121 122
100 5 122 123
101 11 129 130
102 4 134 135
103 5 135 136
104 3 137 138
105 3 139 140
106 9 143 144
107 12 145 146
108 3 147 148
109 8 149 150
110 9 153 154
111 3 155 156
112 8 157 158
113 7 159 160
114 4 161 162
115 5 162 163
116 4 164 165
117 5 165 166
118 8 167 168
119 7 173 174
120 4 178 179
121 5 179 180
122 12 181 182
123 6 185 186
124 4 193 194
125 5 194 195
126 4 196 197
127 5 197 198
128 4 199 200
129 5 200 201
130 3 204 205
131 4 206 207
132 10 207 208
133 3 209 210
134 2 211 212
135 9 213 214
136 8 218 219
137 9 222 223
138 4 224 225
139 5 225 226
140 4 227 228
141 5 228 229
142 8 233 234
143 3 235 236
144 13 2 4
145 14 4 6
146 14 6 8
147 14 8 11
148 14 11 12
149 14 12 15
150 14 15 18
151 14 18 20
152 14 20 24
153 14 24 26
154 14 26 28
155 13 28 31
156 13 109 111
157 14 111 113
158 14 113 114
159 14 114 116
160 14 116 119
161 13 119 121
162 13 134 137
163 14 137 139
164 14 139 141
165 14 141 143
166 14 143 145
167 14 145 147
168 14 147 149
169 13 149 153
170 13 157 159
171 14 159 161
172 14 161 164
173 14 164 167
174 13 167 171
175 13 196 199
176 14 199 202
177 14 202 204
178 14 204 206
179 14 206 209
180 14 209 211
181 14 211 213
182 14 213 215
183 14 215 217
184 14 217 218
185 14 218 222
186 14 222 224
187 14 224 227
188 14 227 230
189 14 230 231
190 14 231 233
191 13 233 235
192 15 4 5
193 14 18 19
194 16 21 22
195 16 21 23
196 16 22 23
197 15 24 25
198 16 39 40
199 16 39 41
200 16 40 41
201 17 42 43
202 15 44 45
203 16 57 58
204 16 57 59
205 16 58 59
206 17 63 64
207 16 73 74
208 16 73 75
209 16 74 75
210 16 80 81
211 16 80 82
212 16 81 82
213 17 90 91
214 16 100 101
215 16 100 102
216 16 101 102
217 17 103 104
218 16 106 107
219 16 106 108
220 16 107 108
221 17 109 110
222 14 125 126
223 17 127 128
224 16 130 131
225 16 130 132
226 16 131 132
227 16 131 133
228 16 132 133
229 17 141 142
230 16 150 151
231 16 150 152
232 16 151 152
233 16 168 169
234 16 168 170
235 16 169 170
236 14 171 172
237 17 176 177
238 14 183 184
239 16 186 187
240 16 186 188
241 16 187 188
242 14 191 192
243 17 202 203
244 14 215 216
245 16 219 220
246 16 219 221
247 16 220 221
248 17 231 232

Angles

1 1 1 2 4
2 1 2 4 6
3 2 4 6 8
4 2 6 8 11
5 2 8 11 12
6 2 11 12 15
7 2 12 15 18
8 2 15 18 20
9 2 18 20 24
10 2 20 24 26
11 2 24 26 28
12 3 26 28 31
13 3 28 31 33
14 3 31 33 34
15 3 33 34 36
16 3 34 36 38
17 3 36 38 42
18 1 38 42 44
19 1 42 44 46
20 3 44 46 48
21 3 46 48 51
22 3 48 51 52
23 3 51 52 53
24 1 52 53 56
25 1 53 56 60
26 1 56 60 63
27 1 60 63 65
28 4 63 65 66
29 1 65 66 68
30 1 66 68 70
31 3 68 70 72
32 3 70 72 76
33 3 72 76 77
34 3 76 77 79
35 3 77 79 83
36 3 79 83 84
37 3 83 84 87
38 3 84 87 90
39 3 87 90 92
40 3 90 92 93
41 3 92 93 95
42 1 93 95 96
43 3 95 96 98
44 3 96 98 99
45 3 98 99 103
46 1 99 103 105
47 1 103 105 109
48 1 105 109 111
49 1 109 111 113
50 2 111 113 114
51 2 113 114 116
52 2 114 116 119
53 1 116 119 121
54 1 119 121 124
55 1 121 124 125
56 1 124 125 127
57 1 125 127 129
58 1 127 129 134
59 1 129 134 137
60 4 134 137 139
61 2 137 139 141
62 2 139 141 143
63 2 141 143 145
64 2 143 145 147
65 2 145 147 149
66 3 147 149 153
67 3 149 153 155
68 3 153 155 157
69 3 155 157 159
70 5 157 159 161
71 5 159 161 164
72 2 161 164 167
73 4 164 167 171
74 4 167 171 173
75 3 171 173 175
76 3 173 175 176
77 3 175 176 178
78 1 176 178 181
79 1 178 181 183
80 1 181 183 185
81 1 183 185 189
82 1 185 189 190
83 1 189 190 191
84 1 190 191 193
85 1 191 193 196
86 1 193 196 199
87 4 196 199 202
88 2 199 202 204
89 2 202 204 206
90 2 204 206 209
91 2 206 209 211
92 2 209 211 213
93 2 211 213 215
94 2 213 215 217
95 2 215 217 218
96 2 217 218 222
97 2 218 222 224
98 2 222 224 227
99 2 224 227 230
100 2 227 230 231
101 2 230 231 233
102 1 231 233 235
103 6 1 2 3
104 6 2 4 5
105 6 4 6 7
106 6 6 8 9
107 6 11 12 13
108 6 12 15 16
109 6 15 18 19
110 6 18 20 21
111 6 20 24 25
112 6 24 26 27
113 6 26 28 29
114 6 28 31 32
115 6 33 34 35
116 6 34 36 37
117 6 36 38 39
118 6 38 42 43
119 6 42 44 45
120 6 44 46 47
121 6 46 48 49
122 6 52 53 54
123 6 53 56 57
124 6 56 60 61
125 6 60 63 64
126 6 65 66 67
127 6 66 68 69
128 6 68 70 71
129 6 70 72 73
130 6 76 77 78
131 6 77 79 80
132 6 83 84 85
133 6 84 87 88
134 6 87 90 91
135 6 92 93 94
136 6 95 96 97
137 6 98 99 100
138 6 99 103 104
139 6 103 105 106
140 6 105 109 110
141 6 109 111 112
142 6 113 114 115
143 6 114 116 117
144 6 116 119 120
145 6 119 121 122
146 6 124 125 126
147 6 125 127 128
148 6 127 129 130
149 6 129 134 135
150 6 134 137 138
151 6 137 139 140
152 6 139 141 142
153 6 141 143 144
154 6 143 145 146
155 6 145 147 148
156 6 147 149 150
157 6 149 153 154
158 6 153 155 156
159 6 155 157 158
160 6 157 159 160
161 6 159 161 162
162 6 161 164 165
163 6 164 167 168
164 6 167 171 172
165 6 171 173 174
166 6 175 176 177
167 6 176 178 179
168 6 178 181 182
169 6 181 183 184
170 6 183 185 186
171 6 190 191 192
172 6 191 193 194
173 6 193 196 197
174 6 196 199 200
175 6 199 202 203
176 6 202 204 205
177 6 204 206 207
178 6 206 209 210
179 6 209 211 212
180 6 211 213 214
181 6 213 215 216
182 6 217 218 219
183 6 218 222 223
184 6 222 224 225
185 6 224 227 228
186 6 230 231 232
187 6 231 233 234
188 6 233 235 236
189 7 8 9 10
190 7 12 13 14
191 7 15 16 17
192 8 20 21 22
193 8 20 21 23
194 7 28 29 30
195 8 38 39 40
196 8 38 39 41
197 7 48 49 50
198 7 53 54 55
199 8 56 57 58
200 8 56 57 59
201 7 60 61 62
202 8 72 73 74
203 8 72 73 75
204 8 79 80 81
205 8 79 80 82
206 7 84 85 86
207 7 87 88 89
208 8 99 100 101
209 8 99 100 102
210 8 105 106 107
211 8 105 106 108
212 7 116 117 118
213 7 121 122 123
214 9 129 130 131
215 10 129 130 132
216 7 134 135 136
217 8 149 150 151
218 8 149 150 152
219 7 161 162 163
220 7 164 165 166
221 8 167 168 169
222 8 167 168 170
223 7 178 179 180
224 8 185 186 187
225 8 185 186 188
226 7 193 194 195
227 7 196 197 198
228 7 199 200 201
229 7 206 207 208
230 8 218 219 220
231 8 218 219 221
232 7 224 225 226
233 7 227 228 229

Dihedrals

1 1 4 6 8 11
2 1 6 8 11 12
3 1 8 11 12 15
4 1 11 12 15 18
5 1 12 15 18 20
6 1 15 18 20 24
7 1 18 20 24 26
8 1 20 24 26 28
9 1 111 113 114 116
10 1 113 114 116 119
11 1 137 139 141 143
12 1 139 141 143 145
13 1 141 143 145 147
14 1 143 145 147 149
15 1 159 161 164 167
16 1 199 202 204 206
17 1 202 204 206 209
18 1 204 206 209 211
19 1 206 209 211 213
20 1 209 211 213 215
21 1 211 213 215 217
22 1 213 215 217 218
23 1 215 217 218 222
24 1 217 218 222 224
25 1 218 222 224 227
26 1 222 224 227 230
27 1 224 227 230 231
28 1 227 230 231 233

Impropers

1 1 20 22 23 21
2 1 38 40 41 39
3 1 56 58 59 57
4 1 72 74 75 73
5 1 79 81 82 80
6 1 99 101 102 100
7 1 105 107 108 106
8 1 129 131 132 130
9 2 130 131 133 132
10 1 149 151 152 150
11 1 167 169 170 168
12 1 185 187 188 186
13 1 218 220 221 219

