comment

236 atoms
248 bonds
233 angles
28 dihedrals
13 impropers

17 atom types
17 bond types
10 angle types
1 dihedral types
2 improper types

-40.5 40.5 xlo xhi
-40.5 40.5 ylo yhi
-190.0 190.0 zlo zhi

Masses

1 72.0
2 72.0
3 72.0
4 72.0
5 72.0
6 72.0
7 72.0
8 72.0
9 72.0
10 45.0
11 72.0
12 72.0
13 72.0
14 45.0
15 45.0
16 72.0
17 45.0

PairIJ Coeffs

1 1 1.19503 4.699999999999999
1 2 1.3384336 4.699999999999999
1 3 1.3384336 4.699999999999999
1 4 0.956024 4.699999999999999
1 5 0.478012 4.699999999999999
1 6 0.5497137999999999 4.699999999999999
1 7 0.836521 4.699999999999999
1 8 0.478012 4.699999999999999
1 9 1.19503 4.699999999999999
1 10 0.7409186 4.699999999999999
1 11 1.3384336 4.699999999999999
1 12 1.19503 4.699999999999999
1 13 0.7409186 4.699999999999999
1 14 0.6453162 4.699999999999999
1 15 1.19503 4.699999999999999
1 16 1.19503 4.699999999999999
1 17 0.956024 4.699999999999999
2 2 1.3384336 4.699999999999999
2 3 1.3384336 4.699999999999999
2 4 1.19503 4.699999999999999
2 5 0.5497137999999999 4.699999999999999
2 6 0.6453162 4.699999999999999
2 7 0.836521 4.699999999999999
2 8 0.478012 4.699999999999999
2 9 1.19503 4.699999999999999
2 10 0.7409186 4.699999999999999
2 11 1.3384336 4.699999999999999
2 12 1.19503 4.699999999999999
2 13 0.7409186 4.699999999999999
2 14 0.6453162 4.699999999999999
2 15 1.3384336 4.699999999999999
2 16 1.3384336 4.699999999999999
2 17 1.19503 4.699999999999999
3 3 1.19503 4.699999999999999
3 4 1.19503 4.699999999999999
3 5 0.478012 4.699999999999999
3 6 0.5497137999999999 4.699999999999999
3 7 0.836521 4.699999999999999
3 8 0.478012 4.699999999999999
3 9 0.956024 4.699999999999999
3 10 0.7409186 4.699999999999999
3 11 1.3384336 4.699999999999999
3 12 1.19503 4.699999999999999
3 13 0.7409186 4.699999999999999
3 14 0.6453162 4.699999999999999
3 15 1.19503 4.699999999999999
3 16 1.19503 4.699999999999999
3 17 1.19503 4.699999999999999
4 4 0.956024 4.699999999999999
4 5 0.6453162 4.699999999999999
4 6 0.6453162 4.699999999999999
4 7 0.836521 4.699999999999999
4 8 0.6453162 4.699999999999999
4 9 1.075527 4.699999999999999
4 10 0.836521 4.699999999999999
4 11 0.956024 4.699999999999999
4 12 1.075527 4.699999999999999
4 13 0.836521 4.699999999999999
4 14 0.7409186 4.699999999999999
4 15 1.075527 4.699999999999999
4 16 1.075527 4.699999999999999
4 17 0.956024 4.699999999999999
5 5 0.836521 4.699999999999999
5 6 0.836521 4.699999999999999
5 7 0.7409186 4.699999999999999
5 8 0.836521 4.699999999999999
5 9 0.6453162 4.699999999999999
5 10 0.7409186 4.699999999999999
5 11 0.5497137999999999 4.699999999999999
5 12 0.6453162 4.699999999999999
5 13 0.7409186 4.699999999999999
5 14 0.7409186 4.699999999999999
5 15 0.7409186 4.699999999999999
5 16 0.7409186 4.699999999999999
5 17 0.6453162 4.699999999999999
6 6 0.836521 4.699999999999999
6 7 0.836521 4.699999999999999
6 8 0.836521 4.699999999999999
6 9 0.6453162 4.699999999999999
6 10 0.836521 4.699999999999999
6 11 0.6453162 4.699999999999999
6 12 0.6453162 4.699999999999999
6 13 0.836521 4.699999999999999
6 14 0.836521 4.699999999999999
6 15 0.836521 4.699999999999999
6 16 0.836521 4.699999999999999
6 17 0.6453162 4.699999999999999
7 7 0.836521 4.699999999999999
7 8 0.6453162 4.699999999999999
7 9 0.836521 4.699999999999999
7 10 0.836521 4.699999999999999
7 11 0.836521 4.699999999999999
7 12 0.836521 4.699999999999999
7 13 0.836521 4.699999999999999
7 14 0.836521 4.699999999999999
7 15 0.956024 4.699999999999999
7 16 0.956024 4.699999999999999
7 17 0.836521 4.699999999999999
8 8 0.836521 4.699999999999999
8 9 0.6453162 4.699999999999999
8 10 0.7409186 4.699999999999999
8 11 0.478012 4.699999999999999
8 12 0.6453162 4.699999999999999
8 13 0.7409186 4.699999999999999
8 14 0.7409186 4.699999999999999
8 15 0.6453162 4.699999999999999
8 16 0.6453162 4.699999999999999
8 17 0.6453162 4.699999999999999
9 9 0.956024 4.699999999999999
9 10 0.836521 4.699999999999999
9 11 0.956024 4.699999999999999
9 12 1.075527 4.699999999999999
9 13 0.836521 4.699999999999999
9 14 0.7409186 4.699999999999999
9 15 1.075527 4.699999999999999
9 16 1.075527 4.699999999999999
9 17 1.075527 4.699999999999999
10 10 0.62739075 4.3
10 11 0.7409186 4.699999999999999
10 12 0.836521 4.699999999999999
10 13 0.836521 4.699999999999999
10 14 0.62739075 4.3
10 15 0.62739075 4.3
10 16 0.836521 4.699999999999999
10 17 0.62739075 4.3
11 11 1.19503 4.699999999999999
11 12 0.956024 4.699999999999999
11 13 0.7409186 4.699999999999999
11 14 0.6453162 4.699999999999999
11 15 1.075527 4.699999999999999
11 16 1.075527 4.699999999999999
11 17 0.956024 4.699999999999999
12 12 1.075527 4.699999999999999
12 13 0.836521 4.699999999999999
12 14 0.7409186 4.699999999999999
12 15 1.075527 4.699999999999999
12 16 1.075527 4.699999999999999
12 17 1.075527 4.699999999999999
13 13 0.836521 4.699999999999999
13 14 0.836521 4.699999999999999
13 15 0.836521 4.699999999999999
13 16 0.836521 4.699999999999999
13 17 0.836521 4.699999999999999
14 14 0.62739075 4.3
14 15 0.62739075 4.3
14 16 0.836521 4.699999999999999
14 17 0.5556889500000001 4.3
15 15 0.80664525 4.3
15 16 1.075527 4.699999999999999
15 17 0.80664525 4.3
16 16 1.075527 4.699999999999999
16 17 1.075527 4.699999999999999
17 17 0.7170179999999999 4.3

Bond Coeffs

1 1.4937875 3.5
2 8.962725 3.2
3 5.97515 4.0
4 5.97515 3.3000000000000003
5 5.97515 2.8000000000000003
6 8.962725 3.1
7 8.962725 3.0
8 5.97515 3.2
9 8.962725 3.3000000000000003
10 5.97515 3.4000000000000004
11 5.97515 3.0
12 2.987575 4.0
13 11.9503 3.3000000000000003
14 11.9503 3.1
15 11.9503 2.6500000000000004
16 11.9503 2.7
17 11.9503 2.6

Angle Coeffs

1 2.39006 127
2 83.6521 96
3 2.39006 100
4 2.39006 130
5 11.9503 98
6 2.987575 100
7 2.987575 180
8 5.97515 150
9 5.97515 210
10 5.97515 90

Dihedral Coeffs

1 95.6024 1 -120 0

Improper Coeffs

1 5.97515 0
2 23.9006 0

Atoms

1 1 1 1.0000 1.2549999 -0.027 -48.818
2 1 2 0.0000 0.153837 0.18523 -51.1027
3 1 3 -1.0000 -1.25445 -0.99143 -53.236
4 1 4 0.0000 1.75982 2.2167702 -54.408
5 1 5 0.0000 3.09591 0.32222402 -55.7316
6 1 4 0.0000 1.7587199 5.27888 -54.7414
7 1 3 -1.0000 -1.9291 5.82232 -55.444798
8 1 4 0.0000 4.47185 5.67497 -56.486702
9 1 6 0.0000 7.1552095 3.9637601 -55.2044
10 1 1 1.0000 8.01949 0.82850504 -55.660202
11 1 4 0.0000 3.6296902 4.45468 -59.1961
12 1 7 0.0000 1.4797499 6.61969 -60.0644
13 1 6 0.0000 -1.65829 7.1736197 -60.7881
14 1 1 1.0000 -4.44339 6.26696 -59.6011
15 1 7 0.0000 3.6277401 9.41284 -59.3789
16 1 6 0.0000 1.96559 10.805301 -56.894104
17 1 1 1.0000 0.225034 10.0986 -55.0771
18 1 7 0.0000 6.2724104 9.1601095 -61.2838
19 1 8 0.0000 7.9514403 7.04243 -60.2199
20 1 9 0.0000 4.66448 9.59865 -64.1968
21 1 10 0.0000 4.9988203 9.36122 -67.265
22 1 10 0.0000 4.66456 9.41132 -69.9122
23 1 10 0.0000 7.1551 9.0315 -69.2528
24 1 9 0.0000 3.4786901 12.8324995 -63.7262
25 1 5 0.0000 1.12713 14.2318 -63.3791
26 1 9 0.0000 6.3747 14.3513 -63.434
27 1 11 0.0000 4.99552 17.2945 -65.4673
28 1 9 0.0000 7.98767 13.2775 -66.062195
29 1 6 0.0000 9.68302 10.9172 -65.4095
30 1 1 1.0000 11.064301 8.63373 -64.1798
31 1 12 0.0000 6.86351 14.0054 -68.9736
32 1 13 0.0000 8.41752 13.8693 -72.0293
33 1 7 0.0000 3.24224 14.5242 -69.1962
34 1 12 0.0000 1.3825101 12.7367 -68.1984
35 1 11 0.0000 -1.4468501 15.8312 -67.954796
36 1 12 0.0000 -0.423336 12.4577 -71.7073
37 1 13 0.0000 -0.379138 15.619499 -71.2822
38 1 2 0.0000 -0.49587202 9.11372 -70.7685
39 1 14 0.0000 1.3376 7.12389 -72.1366
40 1 15 0.0000 3.5771701 5.80821 -72.0762
41 1 15 0.0000 3.1886199 7.71395 -74.0924
42 1 2 0.0000 -4.18161 7.8945103 -70.8012
43 1 16 0.0000 -4.4955997 8.106669 -73.3215
44 1 2 0.0000 -4.2871003 6.59904 -67.2668
45 1 5 0.0000 -3.19605 4.3498297 -67.6725
46 1 2 0.0000 -7.38881 7.08506 -65.5017
47 1 3 -1.0000 -6.00116 9.42875 -62.7184
48 1 12 0.0000 -10.3373 4.1549797 -64.7844
49 1 6 0.0000 -12.059899 2.9168499 -62.0858
50 1 1 1.0000 -11.8928 2.21519 -59.190796
51 1 12 0.0000 -12.5284 6.2795 -66.7725
52 1 2 0.0000 -9.23524 8.24385 -67.5409
53 1 2 0.0000 -10.5188 11.202001 -66.173904
54 1 6 0.0000 -10.525499 9.07434 -62.9778
55 1 1 1.0000 -9.609119 7.3257 -60.8736
56 1 2 0.0000 -9.43645 13.254499 -69.920105
57 1 14 0.0000 -10.7258 10.5297 -71.803
58 1 15 0.0000 -9.37972 8.23337 -72.670395
59 1 15 0.0000 -11.7134 7.7310996 -71.777504
60 1 2 0.0000 -5.53384 13.0225 -71.0855
61 1 6 0.0000 -4.57299 12.2134 -68.2453
62 1 1 1.0000 -3.56475 11.061601 -66.0764
63 1 2 0.0000 -3.9352102 12.600401 -75.4181
64 1 16 0.0000 -3.68716 14.613 -76.937
65 1 2 0.0000 -1.07321 9.88435 -76.4601
66 1 11 0.0000 -0.182987 6.19331 -76.7281
67 1 6 0.0000 1.84231 5.7113304 -79.1445
68 1 2 0.0000 -1.28484 4.58206 -75.0355
69 1 2 0.0000 -4.40304 4.26221 -76.4029
70 1 2 0.0000 -2.11485 2.1564898 -72.374504
71 1 8 0.0000 0.36538798 2.27781 -70.0882
72 1 12 0.0000 -5.8466 2.68325 -73.9356
73 1 14 0.0000 -7.09379 3.59118 -71.5094
74 1 15 0.0000 -9.4719305 4.11574 -70.3407
75 1 15 0.0000 -7.55827 3.12707 -69.0559
76 1 12 0.0000 -7.3817997 -1.25579 -72.7359
77 1 2 0.0000 -5.25661 -2.6601698 -71.0967
78 1 8 0.0000 -3.95272 -0.974038 -68.613
79 1 12 0.0000 -5.8511 -5.53978 -70.2222
80 1 10 0.0000 -4.49862 -6.05834 -67.3658
81 1 10 0.0000 -3.6603599 -5.70116 -64.5278
82 1 10 0.0000 -6.0089703 -6.49354 -65.143196
83 1 12 0.0000 -5.19593 -7.88868 -72.759796
84 1 2 0.0000 -5.33752 -6.95837 -76.1417
85 1 7 0.0000 -3.92587 -4.05547 -75.85
86 1 1 1.0000 -3.41889 -1.40926 -75.6261
87 1 2 0.0000 -3.75265 -7.90817 -79.5489
88 1 6 0.0000 -0.865566 -9.2422495 -80.26221
89 1 1 1.0000 0.27527398 -11.638499 -81.8433
90 1 12 0.0000 -1.8914901 -4.2164702 -80.048
91 1 16 0.0000 -0.0258129 -4.0359397 -78.4586
92 1 12 0.0000 -4.83916 -2.66096 -81.639206
93 1 2 0.0000 -6.3450003 -0.834496 -79.2322
94 1 11 0.0000 -8.7198105 -3.42382 -77.465805
95 1 11 0.0000 -8.55397 1.72717 -78.2272
96 1 7 0.0000 -10.2729 4.25832 -75.7793
97 1 6 0.0000 -12.655601 2.69642 -75.258896
98 1 12 0.0000 -8.37295 6.8299503 -77.5629
99 1 2 0.0000 -8.06426 5.2264795 -80.4832
100 1 10 0.0000 -7.36263 7.55225 -82.408
101 1 10 0.0000 -6.22674 7.60607 -84.6149
102 1 10 0.0000 -7.288 9.90578 -83.8264
103 1 2 0.0000 -4.78586 3.53551 -82.0694
104 1 16 0.0000 -5.74897 2.45598 -84.163704
105 1 2 0.0000 -2.22832 5.4542203 -82.4187
106 1 14 0.0000 -3.05354 7.9228597 -81.023705
107 1 14 0.0000 -4.6057 9.29796 -79.4431
108 1 15 0.0000 -3.0924 10.4548 -81.076294
109 1 2 0.0000 -1.23735 5.26166 -85.4379
110 1 16 0.0000 -2.6168702 6.14605 -87.7639
111 1 4 0.0000 1.48716 3.42878 -85.548294
112 1 3 -1.0000 2.11226 1.6734899 -88.0104
113 1 7 0.0000 2.41594 2.56431 -82.6793
114 1 12 0.0000 -0.19676499 0.703961 -81.8253
115 1 2 0.0000 -1.2994599 1.48644 -79.1443
116 1 12 0.0000 -0.190377 -1.3962799 -84.241
117 1 6 0.0000 -2.1900501 -0.463866 -86.57449
118 1 1 1.0000 -2.6537702 1.25983 -88.6654
119 1 9 0.0000 2.57728 -3.00175 -83.39349
120 1 2 0.0000 3.7679899 -3.1881201 -86.3723
121 1 2 0.0000 4.1833 -5.76452 -81.687805
122 1 6 0.0000 7.74817 -5.28475 -81.1624
123 1 1 1.0000 10.3159 -5.1663103 -78.844696
124 1 2 0.0000 4.04304 -7.7448897 -79.861305
125 1 2 0.0000 2.3587499 -8.2081 -77.1197
126 1 8 0.0000 3.6272902 -10.8753 -76.612
127 1 2 0.0000 -0.256235 -8.07907 -74.5099
128 1 16 0.0000 -1.39857 -10.608701 -74.569305
129 1 2 0.0000 -0.811646 -8.21333 -69.9779
130 1 14 0.0000 -0.908028 -5.2490997 -70.6723
131 1 17 0.0000 -0.21135099 -3.0004401 -71.8599
132 1 10 0.0000 0.00853816 -5.17473 -73.1142
133 1 10 0.0000 0.784885 -2.72987 -74.0222
134 1 2 0.0000 0.47127602 -8.11816 -66.5367
135 1 6 0.0000 2.5505998 -10.877 -67.126495
136 1 1 1.0000 3.57625 -11.4368 -64.7479
137 1 4 0.0000 2.8688 -6.17876 -65.809204
138 1 3 -1.0000 5.78717 -7.9071198 -62.7117
139 1 4 0.0000 5.33226 -7.50572 -67.3531
140 1 3 -1.0000 6.46029 -8.10634 -63.2456
141 1 4 0.0000 4.4671197 -6.3446198 -70.6526
142 1 16 0.0000 4.92208 -8.6596 -72.2872
143 1 12 0.0000 4.58499 -3.38073 -69.9802
144 1 8 0.0000 4.17533 -0.40677 -69.9141
145 1 9 0.0000 7.6123295 -3.12047 -68.9038
146 1 13 0.0000 10.278 -5.49566 -66.6382
147 1 9 0.0000 9.02647 -3.45665 -71.5174
148 1 3 -1.0000 11.7795 -4.10114 -74.6999
149 1 9 0.0000 7.89617 -0.68619996 -72.9415
150 1 14 0.0000 5.3743896 0.899076 -74.69
151 1 14 0.0000 4.2599697 2.47376 -76.4893
152 1 15 0.0000 2.70361 1.6161201 -74.4562
153 1 12 0.0000 9.0803995 1.64227 -71.2606
154 1 8 0.0000 6.7343097 3.3073301 -69.8659
155 1 12 0.0000 12.4538 0.81311893 -72.159
156 1 3 -1.0000 16.6172 0.29492 -71.142105
157 1 2 0.0000 12.8258 3.34868 -73.9477
158 1 2 0.0000 15.5354 4.9707003 -74.9193
159 1 7 0.0000 9.59429 3.67127 -75.5316
160 1 6 0.0000 8.2559595 5.6371303 -74.2378
161 1 12 0.0000 10.851099 3.5232801 -78.5143
162 1 6 0.0000 12.518701 6.21958 -79.7939
163 1 1 1.0000 11.841001 8.70478 -79.2036
164 1 12 0.0000 11.303101 0.157701 -78.5867
165 1 6 0.0000 14.1212 -0.0677865 -77.2226
166 1 1 1.0000 15.6736 -1.37199 -75.4758
167 1 12 0.0000 8.45107 -0.79187995 -78.1297
168 1 14 0.0000 6.51042 -2.9900398 -76.7513
169 1 14 0.0000 4.82448 -3.6884701 -75.049904
170 1 15 0.0000 6.4418697 -5.63698 -75.8048
171 1 2 0.0000 6.28726 -0.14670801 -80.6996
172 1 8 0.0000 3.77314 -1.3652501 -79.441696
173 1 7 0.0000 6.9624195 -0.531622 -83.23241
174 1 6 0.0000 9.69278 -1.26792 -84.3888
175 1 12 0.0000 8.27682 3.45886 -83.19511
176 1 2 0.0000 6.82189 6.85076 -81.273895
177 1 16 0.0000 6.4885597 5.98772 -78.8451
178 1 2 0.0000 4.6588097 6.77398 -83.893295
179 1 6 0.0000 6.35313 5.2016697 -85.6297
180 1 1 1.0000 6.34105 3.03172 -87.5969
181 1 2 0.0000 2.0163898 8.64418 -83.0495
182 1 13 0.0000 1.9968 8.143471 -87.50749
183 1 2 0.0000 2.14607 11.554199 -80.658905
184 1 8 0.0000 0.291283 13.8419 -79.903404
185 1 2 0.0000 4.46246 10.9293995 -77.9255
186 1 10 0.0000 3.6606698 13.7989 -76.0742
187 1 10 0.0000 3.4827101 15.8956 -74.6236
188 1 10 0.0000 1.5191101 15.6185 -75.801605
189 1 11 0.0000 7.37849 10.779 -77.065704
190 1 2 0.0000 10.0534 10.195399 -74.5523
191 1 2 0.0000 11.293 8.3204 -71.4989
192 1 8 0.0000 12.4242 10.4398 -69.51
193 1 2 0.0000 12.122601 5.1617002 -68.7453
194 1 6 0.0000 15.053801 4.87053 -69.846
195 1 1 1.0000 16.6446 3.96708 -68.4114
196 1 2 0.0000 15.4001 1.12963 -66.1886
197 1 6 0.0000 17.2095 2.47334 -63.613
198 1 1 1.0000 17.0487 4.39119 -61.276398
199 1 4 0.0000 14.061399 -0.967358 -63.589302
200 1 6 0.0000 11.835199 -3.44418 -62.6815
201 1 1 1.0000 9.10302 -4.60703 -61.7804
202 1 4 0.0000 12.969299 1.05924 -61.5541
203 1 16 0.0000 12.0401 0.422793 -59.1822
204 1 4 0.0000 12.0043 3.27829 -63.788902
205 1 3 -1.0000 14.9513 6.27177 -64.9061
206 1 4 0.0000 10.274 1.4352701 -65.5809
207 1 7 0.0000 11.403399 -0.784377 -67.9044
208 1 1 1.0000 13.709001 -2.83052 -69.7414
209 1 7 0.0000 8.66992 0.133727 -63.2388
210 1 3 -1.0000 7.0164104 -1.5606099 -59.2252
211 1 7 0.0000 7.31538 2.33198 -61.9278
212 1 3 -1.0000 6.32084 -0.580915 -59.6303
213 1 7 0.0000 5.5941896 3.30233 -64.9424
214 1 8 0.0000 7.64432 5.54779 -65.363304
215 1 7 0.0000 4.2438097 0.352146 -64.9612
216 1 8 0.0000 5.35629 -2.58426 -64.5764
217 1 13 0.0000 2.42437 1.08126 -62.398
218 1 7 0.0000 0.526282 3.24842 -63.655098
219 1 14 0.0000 1.20687 5.48132 -64.9463
220 1 14 0.0000 2.31232 5.99586 -67.480896
221 1 15 0.0000 0.733094 7.84627 -66.2155
222 1 7 0.0000 -0.856378 0.944691 -65.4767
223 1 8 0.0000 0.462728 -2.11369 -66.9099
224 1 7 0.0000 -1.88421 -0.959912 -62.959297
225 1 6 0.0000 0.670726 -3.28648 -62.125202
226 1 1 1.0000 3.5193899 -4.01987 -60.9057
227 1 9 0.0000 -3.2879498 1.3440201 -61.6129
228 1 6 0.0000 -2.46033 1.37985 -58.5054
229 1 1 1.0000 -4.2944803 1.6352899 -56.1475
230 1 7 0.0000 -5.8017497 1.93138 -64.0158
231 1 9 0.0000 -7.19106 -0.684061 -63.7672
232 1 16 0.0000 -7.9780197 -1.5806999 -66.1004
233 1 9 0.0000 -7.88962 -0.484952 -60.815502
234 1 2 0.0000 -5.9846 -2.42182 -59.2333
235 1 3 -1.0000 -7.4928803 2.83329 -59.969902
236 1 3 -1.0000 -8.15203 4.58646 -57.2688

Bonds

1 1 1 2
2 1 31 33
3 1 33 34
4 1 34 36
5 1 36 38
6 1 38 42
7 1 42 44
8 1 44 46
9 1 46 48
10 1 48 51
11 1 51 52
12 1 52 53
13 1 53 56
14 1 56 60
15 1 60 63
16 1 63 65
17 1 65 66
18 1 66 68
19 1 68 70
20 1 70 72
21 1 72 76
22 1 76 77
23 1 77 79
24 1 79 83
25 1 83 84
26 1 84 87
27 1 87 90
28 1 90 92
29 1 92 93
30 1 93 95
31 1 95 96
32 1 96 98
33 1 98 99
34 1 99 103
35 1 103 105
36 1 105 109
37 1 121 124
38 1 124 125
39 1 125 127
40 1 127 129
41 1 129 134
42 1 153 155
43 1 155 157
44 1 171 173
45 1 173 175
46 1 175 176
47 1 176 178
48 1 178 181
49 1 181 183
50 1 183 185
51 1 185 189
52 1 189 190
53 1 190 191
54 1 191 193
55 1 193 196
56 2 2 3
57 3 6 7
58 4 8 9
59 5 9 10
60 4 12 13
61 5 13 14
62 4 15 16
63 5 16 17
64 6 20 21
65 3 26 27
66 4 28 29
67 5 29 30
68 6 31 32
69 3 34 35
70 6 36 37
71 2 38 39
72 3 46 47
73 4 48 49
74 5 49 50
75 4 53 54
76 5 54 55
77 2 56 57
78 4 60 61
79 5 61 62
80 7 66 67
81 8 68 69
82 9 70 71
83 2 72 73
84 9 77 78
85 6 79 80
86 4 84 85
87 10 85 86
88 4 87 88
89 5 88 89
90 3 93 94
91 7 96 97
92 6 99 100
93 8 105 106
94 2 111 112
95 8 114 115
96 4 116 117
97 5 117 118
98 8 119 120
99 4 121 122
100 5 122 123
101 11 129 130
102 4 134 135
103 5 135 136
104 3 137 138
105 3 139 140
106 9 143 144
107 12 145 146
108 3 147 148
109 8 149 150
110 9 153 154
111 3 155 156
112 8 157 158
113 7 159 160
114 4 161 162
115 5 162 163
116 4 164 165
117 5 165 166
118 8 167 168
119 7 173 174
120 4 178 179
121 5 179 180
122 12 181 182
123 6 185 186
124 4 193 194
125 5 194 195
126 4 196 197
127 5 197 198
128 4 199 200
129 5 200 201
130 3 204 205
131 4 206 207
132 10 207 208
133 3 209 210
134 2 211 212
135 9 213 214
136 8 218 219
137 9 222 223
138 4 224 225
139 5 225 226
140 4 227 228
141 5 228 229
142 8 233 234
143 3 235 236
144 13 2 4
145 14 4 6
146 14 6 8
147 14 8 11
148 14 11 12
149 14 12 15
150 14 15 18
151 14 18 20
152 14 20 24
153 14 24 26
154 14 26 28
155 13 28 31
156 13 109 111
157 14 111 113
158 14 113 114
159 14 114 116
160 14 116 119
161 13 119 121
162 13 134 137
163 14 137 139
164 14 139 141
165 14 141 143
166 14 143 145
167 14 145 147
168 14 147 149
169 13 149 153
170 13 157 159
171 14 159 161
172 14 161 164
173 14 164 167
174 13 167 171
175 13 196 199
176 14 199 202
177 14 202 204
178 14 204 206
179 14 206 209
180 14 209 211
181 14 211 213
182 14 213 215
183 14 215 217
184 14 217 218
185 14 218 222
186 14 222 224
187 14 224 227
188 14 227 230
189 14 230 231
190 14 231 233
191 13 233 235
192 15 4 5
193 14 18 19
194 16 21 22
195 16 21 23
196 16 22 23
197 15 24 25
198 16 39 40
199 16 39 41
200 16 40 41
201 17 42 43
202 15 44 45
203 16 57 58
204 16 57 59
205 16 58 59
206 17 63 64
207 16 73 74
208 16 73 75
209 16 74 75
210 16 80 81
211 16 80 82
212 16 81 82
213 17 90 91
214 16 100 101
215 16 100 102
216 16 101 102
217 17 103 104
218 16 106 107
219 16 106 108
220 16 107 108
221 17 109 110
222 14 125 126
223 17 127 128
224 16 130 131
225 16 130 132
226 16 131 132
227 16 131 133
228 16 132 133
229 17 141 142
230 16 150 151
231 16 150 152
232 16 151 152
233 16 168 169
234 16 168 170
235 16 169 170
236 14 171 172
237 17 176 177
238 14 183 184
239 16 186 187
240 16 186 188
241 16 187 188
242 14 191 192
243 17 202 203
244 14 215 216
245 16 219 220
246 16 219 221
247 16 220 221
248 17 231 232

Angles

1 1 1 2 4
2 1 2 4 6
3 2 4 6 8
4 2 6 8 11
5 2 8 11 12
6 2 11 12 15
7 2 12 15 18
8 2 15 18 20
9 2 18 20 24
10 2 20 24 26
11 2 24 26 28
12 3 26 28 31
13 3 28 31 33
14 3 31 33 34
15 3 33 34 36
16 3 34 36 38
17 3 36 38 42
18 1 38 42 44
19 1 42 44 46
20 3 44 46 48
21 3 46 48 51
22 3 48 51 52
23 3 51 52 53
24 1 52 53 56
25 1 53 56 60
26 1 56 60 63
27 1 60 63 65
28 4 63 65 66
29 1 65 66 68
30 1 66 68 70
31 3 68 70 72
32 3 70 72 76
33 3 72 76 77
34 3 76 77 79
35 3 77 79 83
36 3 79 83 84
37 3 83 84 87
38 3 84 87 90
39 3 87 90 92
40 3 90 92 93
41 3 92 93 95
42 1 93 95 96
43 3 95 96 98
44 3 96 98 99
45 3 98 99 103
46 1 99 103 105
47 1 103 105 109
48 1 105 109 111
49 1 109 111 113
50 2 111 113 114
51 2 113 114 116
52 2 114 116 119
53 1 116 119 121
54 1 119 121 124
55 1 121 124 125
56 1 124 125 127
57 1 125 127 129
58 1 127 129 134
59 1 129 134 137
60 4 134 137 139
61 2 137 139 141
62 2 139 141 143
63 2 141 143 145
64 2 143 145 147
65 2 145 147 149
66 3 147 149 153
67 3 149 153 155
68 3 153 155 157
69 3 155 157 159
70 5 157 159 161
71 5 159 161 164
72 2 161 164 167
73 4 164 167 171
74 4 167 171 173
75 3 171 173 175
76 3 173 175 176
77 3 175 176 178
78 1 176 178 181
79 1 178 181 183
80 1 181 183 185
81 1 183 185 189
82 1 185 189 190
83 1 189 190 191
84 1 190 191 193
85 1 191 193 196
86 1 193 196 199
87 4 196 199 202
88 2 199 202 204
89 2 202 204 206
90 2 204 206 209
91 2 206 209 211
92 2 209 211 213
93 2 211 213 215
94 2 213 215 217
95 2 215 217 218
96 2 217 218 222
97 2 218 222 224
98 2 222 224 227
99 2 224 227 230
100 2 227 230 231
101 2 230 231 233
102 1 231 233 235
103 6 1 2 3
104 6 2 4 5
105 6 4 6 7
106 6 6 8 9
107 6 11 12 13
108 6 12 15 16
109 6 15 18 19
110 6 18 20 21
111 6 20 24 25
112 6 24 26 27
113 6 26 28 29
114 6 28 31 32
115 6 33 34 35
116 6 34 36 37
117 6 36 38 39
118 6 38 42 43
119 6 42 44 45
120 6 44 46 47
121 6 46 48 49
122 6 52 53 54
123 6 53 56 57
124 6 56 60 61
125 6 60 63 64
126 6 65 66 67
127 6 66 68 69
128 6 68 70 71
129 6 70 72 73
130 6 76 77 78
131 6 77 79 80
132 6 83 84 85
133 6 84 87 88
134 6 87 90 91
135 6 92 93 94
136 6 95 96 97
137 6 98 99 100
138 6 99 103 104
139 6 103 105 106
140 6 105 109 110
141 6 109 111 112
142 6 113 114 115
143 6 114 116 117
144 6 116 119 120
145 6 119 121 122
146 6 124 125 126
147 6 125 127 128
148 6 127 129 130
149 6 129 134 135
150 6 134 137 138
151 6 137 139 140
152 6 139 141 142
153 6 141 143 144
154 6 143 145 146
155 6 145 147 148
156 6 147 149 150
157 6 149 153 154
158 6 153 155 156
159 6 155 157 158
160 6 157 159 160
161 6 159 161 162
162 6 161 164 165
163 6 164 167 168
164 6 167 171 172
165 6 171 173 174
166 6 175 176 177
167 6 176 178 179
168 6 178 181 182
169 6 181 183 184
170 6 183 185 186
171 6 190 191 192
172 6 191 193 194
173 6 193 196 197
174 6 196 199 200
175 6 199 202 203
176 6 202 204 205
177 6 204 206 207
178 6 206 209 210
179 6 209 211 212
180 6 211 213 214
181 6 213 215 216
182 6 217 218 219
183 6 218 222 223
184 6 222 224 225
185 6 224 227 228
186 6 230 231 232
187 6 231 233 234
188 6 233 235 236
189 7 8 9 10
190 7 12 13 14
191 7 15 16 17
192 8 20 21 22
193 8 20 21 23
194 7 28 29 30
195 8 38 39 40
196 8 38 39 41
197 7 48 49 50
198 7 53 54 55
199 8 56 57 58
200 8 56 57 59
201 7 60 61 62
202 8 72 73 74
203 8 72 73 75
204 8 79 80 81
205 8 79 80 82
206 7 84 85 86
207 7 87 88 89
208 8 99 100 101
209 8 99 100 102
210 8 105 106 107
211 8 105 106 108
212 7 116 117 118
213 7 121 122 123
214 9 129 130 131
215 10 129 130 132
216 7 134 135 136
217 8 149 150 151
218 8 149 150 152
219 7 161 162 163
220 7 164 165 166
221 8 167 168 169
222 8 167 168 170
223 7 178 179 180
224 8 185 186 187
225 8 185 186 188
226 7 193 194 195
227 7 196 197 198
228 7 199 200 201
229 7 206 207 208
230 8 218 219 220
231 8 218 219 221
232 7 224 225 226
233 7 227 228 229

Dihedrals

1 1 4 6 8 11
2 1 6 8 11 12
3 1 8 11 12 15
4 1 11 12 15 18
5 1 12 15 18 20
6 1 15 18 20 24
7 1 18 20 24 26
8 1 20 24 26 28
9 1 111 113 114 116
10 1 113 114 116 119
11 1 137 139 141 143
12 1 139 141 143 145
13 1 141 143 145 147
14 1 143 145 147 149
15 1 159 161 164 167
16 1 199 202 204 206
17 1 202 204 206 209
18 1 204 206 209 211
19 1 206 209 211 213
20 1 209 211 213 215
21 1 211 213 215 217
22 1 213 215 217 218
23 1 215 217 218 222
24 1 217 218 222 224
25 1 218 222 224 227
26 1 222 224 227 230
27 1 224 227 230 231
28 1 227 230 231 233

Impropers

1 1 20 22 23 21
2 1 38 40 41 39
3 1 56 58 59 57
4 1 72 74 75 73
5 1 79 81 82 80
6 1 99 101 102 100
7 1 105 107 108 106
8 1 129 131 132 130
9 2 130 131 133 132
10 1 149 151 152 150
11 1 167 169 170 168
12 1 185 187 188 186
13 1 218 220 221 219

