comment

236 atoms
248 bonds
233 angles
28 dihedrals
13 impropers

17 atom types
17 bond types
10 angle types
1 dihedral types
2 improper types

-40.5 40.5 xlo xhi
-40.5 40.5 ylo yhi
-190.0 190.0 zlo zhi

Masses

1 72.0
2 72.0
3 72.0
4 72.0
5 72.0
6 72.0
7 72.0
8 72.0
9 72.0
10 45.0
11 72.0
12 72.0
13 72.0
14 45.0
15 45.0
16 72.0
17 45.0

PairIJ Coeffs

1 1 1.19503 4.699999999999999
1 2 1.3384336 4.699999999999999
1 3 1.3384336 4.699999999999999
1 4 0.956024 4.699999999999999
1 5 0.478012 4.699999999999999
1 6 0.5497137999999999 4.699999999999999
1 7 0.836521 4.699999999999999
1 8 0.478012 4.699999999999999
1 9 1.19503 4.699999999999999
1 10 0.7409186 4.699999999999999
1 11 1.3384336 4.699999999999999
1 12 1.19503 4.699999999999999
1 13 0.7409186 4.699999999999999
1 14 0.6453162 4.699999999999999
1 15 1.19503 4.699999999999999
1 16 1.19503 4.699999999999999
1 17 0.956024 4.699999999999999
2 2 1.3384336 4.699999999999999
2 3 1.3384336 4.699999999999999
2 4 1.19503 4.699999999999999
2 5 0.5497137999999999 4.699999999999999
2 6 0.6453162 4.699999999999999
2 7 0.836521 4.699999999999999
2 8 0.478012 4.699999999999999
2 9 1.19503 4.699999999999999
2 10 0.7409186 4.699999999999999
2 11 1.3384336 4.699999999999999
2 12 1.19503 4.699999999999999
2 13 0.7409186 4.699999999999999
2 14 0.6453162 4.699999999999999
2 15 1.3384336 4.699999999999999
2 16 1.3384336 4.699999999999999
2 17 1.19503 4.699999999999999
3 3 1.19503 4.699999999999999
3 4 1.19503 4.699999999999999
3 5 0.478012 4.699999999999999
3 6 0.5497137999999999 4.699999999999999
3 7 0.836521 4.699999999999999
3 8 0.478012 4.699999999999999
3 9 0.956024 4.699999999999999
3 10 0.7409186 4.699999999999999
3 11 1.3384336 4.699999999999999
3 12 1.19503 4.699999999999999
3 13 0.7409186 4.699999999999999
3 14 0.6453162 4.699999999999999
3 15 1.19503 4.699999999999999
3 16 1.19503 4.699999999999999
3 17 1.19503 4.699999999999999
4 4 0.956024 4.699999999999999
4 5 0.6453162 4.699999999999999
4 6 0.6453162 4.699999999999999
4 7 0.836521 4.699999999999999
4 8 0.6453162 4.699999999999999
4 9 1.075527 4.699999999999999
4 10 0.836521 4.699999999999999
4 11 0.956024 4.699999999999999
4 12 1.075527 4.699999999999999
4 13 0.836521 4.699999999999999
4 14 0.7409186 4.699999999999999
4 15 1.075527 4.699999999999999
4 16 1.075527 4.699999999999999
4 17 0.956024 4.699999999999999
5 5 0.836521 4.699999999999999
5 6 0.836521 4.699999999999999
5 7 0.7409186 4.699999999999999
5 8 0.836521 4.699999999999999
5 9 0.6453162 4.699999999999999
5 10 0.7409186 4.699999999999999
5 11 0.5497137999999999 4.699999999999999
5 12 0.6453162 4.699999999999999
5 13 0.7409186 4.699999999999999
5 14 0.7409186 4.699999999999999
5 15 0.7409186 4.699999999999999
5 16 0.7409186 4.699999999999999
5 17 0.6453162 4.699999999999999
6 6 0.836521 4.699999999999999
6 7 0.836521 4.699999999999999
6 8 0.836521 4.699999999999999
6 9 0.6453162 4.699999999999999
6 10 0.836521 4.699999999999999
6 11 0.6453162 4.699999999999999
6 12 0.6453162 4.699999999999999
6 13 0.836521 4.699999999999999
6 14 0.836521 4.699999999999999
6 15 0.836521 4.699999999999999
6 16 0.836521 4.699999999999999
6 17 0.6453162 4.699999999999999
7 7 0.836521 4.699999999999999
7 8 0.6453162 4.699999999999999
7 9 0.836521 4.699999999999999
7 10 0.836521 4.699999999999999
7 11 0.836521 4.699999999999999
7 12 0.836521 4.699999999999999
7 13 0.836521 4.699999999999999
7 14 0.836521 4.699999999999999
7 15 0.956024 4.699999999999999
7 16 0.956024 4.699999999999999
7 17 0.836521 4.699999999999999
8 8 0.836521 4.699999999999999
8 9 0.6453162 4.699999999999999
8 10 0.7409186 4.699999999999999
8 11 0.478012 4.699999999999999
8 12 0.6453162 4.699999999999999
8 13 0.7409186 4.699999999999999
8 14 0.7409186 4.699999999999999
8 15 0.6453162 4.699999999999999
8 16 0.6453162 4.699999999999999
8 17 0.6453162 4.699999999999999
9 9 0.956024 4.699999999999999
9 10 0.836521 4.699999999999999
9 11 0.956024 4.699999999999999
9 12 1.075527 4.699999999999999
9 13 0.836521 4.699999999999999
9 14 0.7409186 4.699999999999999
9 15 1.075527 4.699999999999999
9 16 1.075527 4.699999999999999
9 17 1.075527 4.699999999999999
10 10 0.62739075 4.3
10 11 0.7409186 4.699999999999999
10 12 0.836521 4.699999999999999
10 13 0.836521 4.699999999999999
10 14 0.62739075 4.3
10 15 0.62739075 4.3
10 16 0.836521 4.699999999999999
10 17 0.62739075 4.3
11 11 1.19503 4.699999999999999
11 12 0.956024 4.699999999999999
11 13 0.7409186 4.699999999999999
11 14 0.6453162 4.699999999999999
11 15 1.075527 4.699999999999999
11 16 1.075527 4.699999999999999
11 17 0.956024 4.699999999999999
12 12 1.075527 4.699999999999999
12 13 0.836521 4.699999999999999
12 14 0.7409186 4.699999999999999
12 15 1.075527 4.699999999999999
12 16 1.075527 4.699999999999999
12 17 1.075527 4.699999999999999
13 13 0.836521 4.699999999999999
13 14 0.836521 4.699999999999999
13 15 0.836521 4.699999999999999
13 16 0.836521 4.699999999999999
13 17 0.836521 4.699999999999999
14 14 0.62739075 4.3
14 15 0.62739075 4.3
14 16 0.836521 4.699999999999999
14 17 0.5556889500000001 4.3
15 15 0.80664525 4.3
15 16 1.075527 4.699999999999999
15 17 0.80664525 4.3
16 16 1.075527 4.699999999999999
16 17 1.075527 4.699999999999999
17 17 0.7170179999999999 4.3

Bond Coeffs

1 1.4937875 3.5
2 8.962725 3.2
3 5.97515 4.0
4 5.97515 3.3000000000000003
5 5.97515 2.8000000000000003
6 8.962725 3.1
7 8.962725 3.0
8 5.97515 3.2
9 8.962725 3.3000000000000003
10 5.97515 3.4000000000000004
11 5.97515 3.0
12 2.987575 4.0
13 11.9503 3.3000000000000003
14 11.9503 3.1
15 11.9503 2.6500000000000004
16 11.9503 2.7
17 11.9503 2.6

Angle Coeffs

1 2.39006 127
2 83.6521 96
3 2.39006 100
4 2.39006 130
5 11.9503 98
6 2.987575 100
7 2.987575 180
8 5.97515 150
9 5.97515 210
10 5.97515 90

Dihedral Coeffs

1 95.6024 1 -120 0

Improper Coeffs

1 5.97515 0
2 23.9006 0

Atoms

1 1 1 1.0000 1.2549999 -0.027 -48.818
2 1 2 0.0000 0.20899 0.0199631 -51.321404
3 1 3 -1.0000 -1.45011 -0.394599 -53.3684
4 1 4 0.0000 2.10796 2.07532 -54.2259
5 1 5 0.0000 2.70345 0.249733 -56.288902
6 1 4 0.0000 1.5807401 5.19652 -54.796402
7 1 3 -1.0000 -1.53314 6.1751995 -56.3582
8 1 4 0.0000 4.16778 6.24953 -56.248497
9 1 6 0.0000 7.1956997 4.68177 -55.7201
10 1 1 1.0000 7.67956 1.9202299 -56.6893
11 1 4 0.0000 3.66607 5.06434 -59.5097
12 1 7 0.0000 1.29492 7.29626 -60.2701
13 1 6 0.0000 -1.99467 6.8047304 -61.0552
14 1 1 1.0000 -4.42572 6.3899302 -60.2359
15 1 7 0.0000 3.38831 9.77987 -59.415497
16 1 6 0.0000 2.22204 11.129301 -56.732002
17 1 1 1.0000 0.00727132 10.4292 -55.7176
18 1 7 0.0000 5.7906504 9.035851 -61.7308
19 1 8 0.0000 8.25478 7.4444504 -60.7184
20 1 9 0.0000 4.19789 9.79399 -64.6249
21 1 10 0.0000 4.71377 9.491051 -67.7468
22 1 10 0.0000 4.75192 10.2841 -70.5305
23 1 10 0.0000 6.28677 8.81767 -69.2992
24 1 9 0.0000 3.44298 12.7671 -63.795097
25 1 5 0.0000 1.1458 14.2342 -63.8796
26 1 9 0.0000 6.4808297 13.6057 -63.276
27 1 11 0.0000 6.09132 17.4468 -65.0943
28 1 9 0.0000 7.8768497 13.1609 -66.0901
29 1 6 0.0000 9.48114 10.7616 -65.2691
30 1 1 1.0000 11.8311 9.45833 -65.0197
31 1 12 0.0000 6.81577 14.1649 -69.0529
32 1 13 0.0000 8.78249 14.3474 -71.2383
33 1 7 0.0000 3.94803 14.4969 -68.7607
34 1 12 0.0000 0.843292 12.366 -68.3787
35 1 11 0.0000 -1.3775399 16.2715 -68.9376
36 1 12 0.0000 -0.167119 12.392599 -71.6679
37 1 13 0.0000 -0.96041405 15.2042 -71.7511
38 1 2 0.0000 -0.752643 8.50117 -71.497
39 1 14 0.0000 2.2342 7.64023 -72.593796
40 1 15 0.0000 3.9166 5.7316103 -72.6119
41 1 15 0.0000 4.23686 7.77861 -74.383
42 1 2 0.0000 -4.05685 8.03002 -71.6456
43 1 16 0.0000 -5.08702 8.34894 -74.007706
44 1 2 0.0000 -4.77037 7.50033 -67.7468
45 1 5 0.0000 -3.28834 5.20127 -67.6374
46 1 2 0.0000 -7.3312497 6.14456 -64.8665
47 1 3 -1.0000 -5.75372 9.80758 -62.8095
48 1 12 0.0000 -11.1332 3.64176 -64.4579
49 1 6 0.0000 -12.1106 2.3551102 -61.557297
50 1 1 1.0000 -11.8145 1.3641299 -58.5822
51 1 12 0.0000 -12.246099 5.5683203 -66.9816
52 1 2 0.0000 -10.010099 7.6406 -67.3147
53 1 2 0.0000 -9.89876 10.8286 -66.4993
54 1 6 0.0000 -10.550099 9.49232 -62.9937
55 1 1 1.0000 -9.448279 7.75284 -60.6877
56 1 2 0.0000 -9.08595 12.859 -69.7707
57 1 14 0.0000 -10.240299 10.4458 -71.758896
58 1 15 0.0000 -9.764231 7.9155703 -72.431595
59 1 15 0.0000 -12.0408 8.54595 -71.480095
60 1 2 0.0000 -5.3062496 12.9468 -71.286896
61 1 6 0.0000 -4.5525303 12.1994 -68.8015
62 1 1 1.0000 -3.9939902 12.1619 -66.2673
63 1 2 0.0000 -3.79628 12.894401 -74.9122
64 1 16 0.0000 -3.5254898 14.9798 -76.4716
65 1 2 0.0000 -1.05443 10.462299 -76.3523
66 1 11 0.0000 -0.144906 6.91791 -76.971695
67 1 6 0.0000 1.4045701 5.97688 -79.3931
68 1 2 0.0000 -1.5526199 4.57307 -75.4779
69 1 2 0.0000 -4.0927896 4.13524 -76.6539
70 1 2 0.0000 -2.5671198 2.8799798 -72.1283
71 1 8 0.0000 -0.253185 2.46069 -69.945
72 1 12 0.0000 -5.9993 2.43485 -74.542496
73 1 14 0.0000 -7.1202803 3.3021798 -71.6889
74 1 15 0.0000 -9.432381 3.92699 -70.9557
75 1 15 0.0000 -7.6512403 3.17438 -69.1679
76 1 12 0.0000 -7.62605 -1.29448 -73.7339
77 1 2 0.0000 -5.32479 -2.41607 -70.9698
78 1 8 0.0000 -3.96247 -0.850097 -68.5805
79 1 12 0.0000 -6.1740704 -5.6251297 -70.2079
80 1 10 0.0000 -5.29212 -5.96339 -67.2062
81 1 10 0.0000 -3.50472 -5.5939503 -65.252
82 1 10 0.0000 -5.57631 -7.00566 -64.6249
83 1 12 0.0000 -5.6565704 -8.3697405 -72.7396
84 1 2 0.0000 -5.00252 -6.71677 -76.757996
85 1 7 0.0000 -3.9963002 -4.42983 -75.5617
86 1 1 1.0000 -2.92611 -1.11172 -75.5591
87 1 2 0.0000 -3.5173602 -7.60405 -79.365204
88 1 6 0.0000 -0.41469398 -8.85103 -80.1274
89 1 1 1.0000 0.72456896 -7.3577795 -82.438095
90 1 12 0.0000 -1.91083 -3.8492799 -79.905304
91 1 16 0.0000 0.365635 -3.724 -78.8668
92 1 12 0.0000 -5.20743 -3.3470101 -81.3468
93 1 2 0.0000 -6.47367 -1.11379 -78.920395
94 1 11 0.0000 -9.02493 -3.76698 -77.660095
95 1 11 0.0000 -8.49144 1.04266 -79.193504
96 1 7 0.0000 -10.3928995 3.9354599 -76.7261
97 1 6 0.0000 -12.1954 2.4595 -74.7973
98 1 12 0.0000 -8.4654 6.91159 -77.389
99 1 2 0.0000 -7.2028 5.70373 -80.77699
100 1 10 0.0000 -7.1736 7.7814198 -83.0243
101 1 10 0.0000 -5.99731 8.14619 -85.4021
102 1 10 0.0000 -6.9247503 10.2077 -84.0484
103 1 2 0.0000 -4.45832 3.17732 -81.367195
104 1 16 0.0000 -5.24035 1.78881 -83.552
105 1 2 0.0000 -2.29742 6.10002 -82.9124
106 1 14 0.0000 -2.93182 8.55352 -81.184395
107 1 14 0.0000 -4.5710797 9.09815 -79.2808
108 1 15 0.0000 -3.51687 10.9991 -81.2471
109 1 2 0.0000 -1.75219 4.0731497 -85.9201
110 1 16 0.0000 -2.11262 5.7743797 -88.204895
111 1 4 0.0000 1.3076601 2.9519799 -86.024
112 1 3 -1.0000 2.69698 1.3720601 -88.090294
113 1 7 0.0000 2.48486 2.2685199 -83.05589
114 1 12 0.0000 -0.17878899 0.49619 -81.90291
115 1 2 0.0000 -0.17991601 1.29443 -78.8854
116 1 12 0.0000 0.00941704 -2.14357 -84.1626
117 1 6 0.0000 -2.4890199 -0.95604503 -86.3758
118 1 1 1.0000 -1.82252 0.066391796 -88.8506
119 1 9 0.0000 2.90717 -3.1546 -83.563
120 1 2 0.0000 3.45106 -3.9949 -86.8567
121 1 2 0.0000 5.16753 -4.72863 -81.5025
122 1 6 0.0000 8.35223 -4.49096 -80.9735
123 1 1 1.0000 10.4249 -4.83993 -79.121
124 1 2 0.0000 4.40242 -7.59094 -79.6424
125 1 2 0.0000 2.22859 -7.7850504 -76.6751
126 1 8 0.0000 2.4858599 -10.9456005 -76.511505
127 1 2 0.0000 -0.446516 -8.26753 -74.009
128 1 16 0.0000 -1.6071901 -10.1339 -75.3325
129 1 2 0.0000 -1.32567 -7.87988 -70.0925
130 1 14 0.0000 -1.2051799 -4.80171 -70.4565
131 1 17 0.0000 -0.220688 -2.50301 -71.649796
132 1 10 0.0000 0.26196802 -4.69986 -73.0449
133 1 10 0.0000 1.2976401 -2.47635 -73.6653
134 1 2 0.0000 0.27873102 -8.85898 -67.8085
135 1 6 0.0000 2.33345 -11.233601 -67.7583
136 1 1 1.0000 3.71151 -11.4184 -65.518295
137 1 4 0.0000 2.34337 -6.48734 -66.5313
138 1 3 -1.0000 5.0142097 -7.59829 -63.1222
139 1 4 0.0000 5.04709 -7.59996 -68.123
140 1 3 -1.0000 5.58003 -8.01697 -63.6101
141 1 4 0.0000 4.45625 -6.31618 -70.9308
142 1 16 0.0000 4.34991 -8.38709 -72.4535
143 1 12 0.0000 4.4991 -3.25549 -69.805695
144 1 8 0.0000 3.82551 -0.0950169 -69.7438
145 1 9 0.0000 7.77008 -3.4373999 -68.684906
146 1 13 0.0000 9.99598 -6.08714 -67.034996
147 1 9 0.0000 9.00518 -3.59655 -71.6343
148 1 3 -1.0000 11.936001 -3.53322 -74.7125
149 1 9 0.0000 7.67232 -0.522417 -72.8376
150 1 14 0.0000 5.0971103 1.08757 -74.2335
151 1 14 0.0000 3.83351 2.89765 -75.922195
152 1 15 0.0000 2.25321 1.60438 -74.378296
153 1 12 0.0000 9.0273 1.70478 -71.1446
154 1 8 0.0000 7.07918 3.5302 -69.635
155 1 12 0.0000 12.2665 1.03416 -72.1847
156 1 3 -1.0000 15.9119 0.30209398 -71.0521
157 1 2 0.0000 12.982 3.16611 -74.0829
158 1 2 0.0000 15.935101 3.58456 -74.7171
159 1 7 0.0000 9.94808 3.60821 -75.5016
160 1 6 0.0000 8.44514 5.40888 -74.3999
161 1 12 0.0000 11.0842 3.24194 -78.4573
162 1 6 0.0000 13.084299 6.18781 -78.863
163 1 1 1.0000 12.3429 7.95943 -76.687195
164 1 12 0.0000 11.415 0.133625 -78.5409
165 1 6 0.0000 14.611799 -0.624659 -77.6977
166 1 1 1.0000 15.6714 -1.29645 -75.3127
167 1 12 0.0000 8.5429 -0.69891995 -77.8938
168 1 14 0.0000 6.68572 -3.18491 -76.6808
169 1 14 0.0000 5.07528 -3.95074 -75.0152
170 1 15 0.0000 6.86936 -5.4829197 -75.732796
171 1 2 0.0000 6.12066 1.05366 -79.7877
172 1 8 0.0000 3.87402 -0.82054305 -79.1848
173 1 7 0.0000 6.47867 0.110553995 -83.311905
174 1 6 0.0000 8.706161 -0.953146 -84.80331
175 1 12 0.0000 9.0761 3.3575401 -82.8582
176 1 2 0.0000 6.31212 3.8962798 -79.9603
177 1 16 0.0000 6.7109604 6.1914997 -78.9222
178 1 2 0.0000 4.84031 6.3935204 -83.4507
179 1 6 0.0000 6.65314 5.09434 -85.396
180 1 1 1.0000 6.94641 2.9682002 -87.325806
181 1 2 0.0000 2.8620698 9.098701 -83.406
182 1 13 0.0000 1.99267 8.7945 -86.843
183 1 2 0.0000 1.61547 10.9962 -80.5867
184 1 8 0.0000 1.2839199 14.064699 -80.819595
185 1 2 0.0000 4.30968 10.8389 -78.1752
186 1 10 0.0000 3.57822 13.4993 -76.6359
187 1 10 0.0000 4.24536 15.799399 -75.451004
188 1 10 0.0000 1.35051 14.8345995 -75.9015
189 1 11 0.0000 7.44551 10.8106 -76.511795
190 1 2 0.0000 8.64606 9.980801 -73.3534
191 1 2 0.0000 11.4457 7.5582 -71.272804
192 1 8 0.0000 12.578699 10.253201 -70.1241
193 1 2 0.0000 12.1122 5.0898404 -68.4908
194 1 6 0.0000 14.7445 4.59415 -69.7252
195 1 1 1.0000 16.8595 3.8088398 -68.126
196 1 2 0.0000 15.3158 1.37885 -65.8806
197 1 6 0.0000 17.7946 2.6275 -63.6286
198 1 1 1.0000 16.8808 3.41174 -60.9823
199 1 4 0.0000 14.703899 -1.0803499 -63.3151
200 1 6 0.0000 11.7242 -3.8550901 -62.0927
201 1 1 1.0000 8.76684 -5.13838 -61.7234
202 1 4 0.0000 13.019 0.73487103 -61.5056
203 1 16 0.0000 11.824501 -0.0315035 -59.161
204 1 4 0.0000 12.139 3.05756 -63.8937
205 1 3 -1.0000 14.7536 5.9719996 -64.2873
206 1 4 0.0000 10.371099 0.976663 -65.6982
207 1 7 0.0000 11.842001 -1.4207699 -67.7277
208 1 1 1.0000 13.5664 -3.3576398 -70.2768
209 1 7 0.0000 8.77699 -0.097485 -63.3523
210 1 3 -1.0000 6.7573795 -1.63832 -59.576
211 1 7 0.0000 7.34308 2.5724 -62.2521
212 1 3 -1.0000 6.1964397 -0.533318 -59.8516
213 1 7 0.0000 5.54476 2.71631 -65.183304
214 1 8 0.0000 6.9978304 5.64611 -65.744
215 1 7 0.0000 4.2969 0.127842 -64.6453
216 1 8 0.0000 5.2891803 -2.90304 -64.8988
217 1 13 0.0000 2.3289201 1.18546 -62.1813
218 1 7 0.0000 0.714368 2.91558 -63.7577
219 1 14 0.0000 1.70422 5.48629 -65.5558
220 1 14 0.0000 2.42383 5.9249 -68.1145
221 1 15 0.0000 0.764606 7.44384 -66.9464
222 1 7 0.0000 -0.606143 0.63185 -65.726
223 1 8 0.0000 0.610453 -2.12961 -66.7753
224 1 7 0.0000 -1.68007 -1.15026 -63.2837
225 1 6 0.0000 0.69965696 -3.29103 -62.235798
226 1 1 1.0000 3.14506 -4.00634 -61.1558
227 1 9 0.0000 -3.3781002 1.26928 -61.9833
228 1 6 0.0000 -2.95447 1.75121 -58.8903
229 1 1 1.0000 -4.47425 2.0044901 -56.2952
230 1 7 0.0000 -5.44073 1.9642 -64.4123
231 1 9 0.0000 -7.08424 -0.748676 -64.3962
232 1 16 0.0000 -8.40145 -0.92531896 -66.6362
233 1 9 0.0000 -7.7505302 -0.49878 -60.8891
234 1 2 0.0000 -6.36262 -2.6736 -59.103397
235 1 3 -1.0000 -7.49439 2.9355698 -60.258797
236 1 3 -1.0000 -8.288051 4.5988603 -57.524902

Bonds

1 1 1 2
2 1 31 33
3 1 33 34
4 1 34 36
5 1 36 38
6 1 38 42
7 1 42 44
8 1 44 46
9 1 46 48
10 1 48 51
11 1 51 52
12 1 52 53
13 1 53 56
14 1 56 60
15 1 60 63
16 1 63 65
17 1 65 66
18 1 66 68
19 1 68 70
20 1 70 72
21 1 72 76
22 1 76 77
23 1 77 79
24 1 79 83
25 1 83 84
26 1 84 87
27 1 87 90
28 1 90 92
29 1 92 93
30 1 93 95
31 1 95 96
32 1 96 98
33 1 98 99
34 1 99 103
35 1 103 105
36 1 105 109
37 1 121 124
38 1 124 125
39 1 125 127
40 1 127 129
41 1 129 134
42 1 153 155
43 1 155 157
44 1 171 173
45 1 173 175
46 1 175 176
47 1 176 178
48 1 178 181
49 1 181 183
50 1 183 185
51 1 185 189
52 1 189 190
53 1 190 191
54 1 191 193
55 1 193 196
56 2 2 3
57 3 6 7
58 4 8 9
59 5 9 10
60 4 12 13
61 5 13 14
62 4 15 16
63 5 16 17
64 6 20 21
65 3 26 27
66 4 28 29
67 5 29 30
68 6 31 32
69 3 34 35
70 6 36 37
71 2 38 39
72 3 46 47
73 4 48 49
74 5 49 50
75 4 53 54
76 5 54 55
77 2 56 57
78 4 60 61
79 5 61 62
80 7 66 67
81 8 68 69
82 9 70 71
83 2 72 73
84 9 77 78
85 6 79 80
86 4 84 85
87 10 85 86
88 4 87 88
89 5 88 89
90 3 93 94
91 7 96 97
92 6 99 100
93 8 105 106
94 2 111 112
95 8 114 115
96 4 116 117
97 5 117 118
98 8 119 120
99 4 121 122
100 5 122 123
101 11 129 130
102 4 134 135
103 5 135 136
104 3 137 138
105 3 139 140
106 9 143 144
107 12 145 146
108 3 147 148
109 8 149 150
110 9 153 154
111 3 155 156
112 8 157 158
113 7 159 160
114 4 161 162
115 5 162 163
116 4 164 165
117 5 165 166
118 8 167 168
119 7 173 174
120 4 178 179
121 5 179 180
122 12 181 182
123 6 185 186
124 4 193 194
125 5 194 195
126 4 196 197
127 5 197 198
128 4 199 200
129 5 200 201
130 3 204 205
131 4 206 207
132 10 207 208
133 3 209 210
134 2 211 212
135 9 213 214
136 8 218 219
137 9 222 223
138 4 224 225
139 5 225 226
140 4 227 228
141 5 228 229
142 8 233 234
143 3 235 236
144 13 2 4
145 14 4 6
146 14 6 8
147 14 8 11
148 14 11 12
149 14 12 15
150 14 15 18
151 14 18 20
152 14 20 24
153 14 24 26
154 14 26 28
155 13 28 31
156 13 109 111
157 14 111 113
158 14 113 114
159 14 114 116
160 14 116 119
161 13 119 121
162 13 134 137
163 14 137 139
164 14 139 141
165 14 141 143
166 14 143 145
167 14 145 147
168 14 147 149
169 13 149 153
170 13 157 159
171 14 159 161
172 14 161 164
173 14 164 167
174 13 167 171
175 13 196 199
176 14 199 202
177 14 202 204
178 14 204 206
179 14 206 209
180 14 209 211
181 14 211 213
182 14 213 215
183 14 215 217
184 14 217 218
185 14 218 222
186 14 222 224
187 14 224 227
188 14 227 230
189 14 230 231
190 14 231 233
191 13 233 235
192 15 4 5
193 14 18 19
194 16 21 22
195 16 21 23
196 16 22 23
197 15 24 25
198 16 39 40
199 16 39 41
200 16 40 41
201 17 42 43
202 15 44 45
203 16 57 58
204 16 57 59
205 16 58 59
206 17 63 64
207 16 73 74
208 16 73 75
209 16 74 75
210 16 80 81
211 16 80 82
212 16 81 82
213 17 90 91
214 16 100 101
215 16 100 102
216 16 101 102
217 17 103 104
218 16 106 107
219 16 106 108
220 16 107 108
221 17 109 110
222 14 125 126
223 17 127 128
224 16 130 131
225 16 130 132
226 16 131 132
227 16 131 133
228 16 132 133
229 17 141 142
230 16 150 151
231 16 150 152
232 16 151 152
233 16 168 169
234 16 168 170
235 16 169 170
236 14 171 172
237 17 176 177
238 14 183 184
239 16 186 187
240 16 186 188
241 16 187 188
242 14 191 192
243 17 202 203
244 14 215 216
245 16 219 220
246 16 219 221
247 16 220 221
248 17 231 232

Angles

1 1 1 2 4
2 1 2 4 6
3 2 4 6 8
4 2 6 8 11
5 2 8 11 12
6 2 11 12 15
7 2 12 15 18
8 2 15 18 20
9 2 18 20 24
10 2 20 24 26
11 2 24 26 28
12 3 26 28 31
13 3 28 31 33
14 3 31 33 34
15 3 33 34 36
16 3 34 36 38
17 3 36 38 42
18 1 38 42 44
19 1 42 44 46
20 3 44 46 48
21 3 46 48 51
22 3 48 51 52
23 3 51 52 53
24 1 52 53 56
25 1 53 56 60
26 1 56 60 63
27 1 60 63 65
28 4 63 65 66
29 1 65 66 68
30 1 66 68 70
31 3 68 70 72
32 3 70 72 76
33 3 72 76 77
34 3 76 77 79
35 3 77 79 83
36 3 79 83 84
37 3 83 84 87
38 3 84 87 90
39 3 87 90 92
40 3 90 92 93
41 3 92 93 95
42 1 93 95 96
43 3 95 96 98
44 3 96 98 99
45 3 98 99 103
46 1 99 103 105
47 1 103 105 109
48 1 105 109 111
49 1 109 111 113
50 2 111 113 114
51 2 113 114 116
52 2 114 116 119
53 1 116 119 121
54 1 119 121 124
55 1 121 124 125
56 1 124 125 127
57 1 125 127 129
58 1 127 129 134
59 1 129 134 137
60 4 134 137 139
61 2 137 139 141
62 2 139 141 143
63 2 141 143 145
64 2 143 145 147
65 2 145 147 149
66 3 147 149 153
67 3 149 153 155
68 3 153 155 157
69 3 155 157 159
70 5 157 159 161
71 5 159 161 164
72 2 161 164 167
73 4 164 167 171
74 4 167 171 173
75 3 171 173 175
76 3 173 175 176
77 3 175 176 178
78 1 176 178 181
79 1 178 181 183
80 1 181 183 185
81 1 183 185 189
82 1 185 189 190
83 1 189 190 191
84 1 190 191 193
85 1 191 193 196
86 1 193 196 199
87 4 196 199 202
88 2 199 202 204
89 2 202 204 206
90 2 204 206 209
91 2 206 209 211
92 2 209 211 213
93 2 211 213 215
94 2 213 215 217
95 2 215 217 218
96 2 217 218 222
97 2 218 222 224
98 2 222 224 227
99 2 224 227 230
100 2 227 230 231
101 2 230 231 233
102 1 231 233 235
103 6 1 2 3
104 6 2 4 5
105 6 4 6 7
106 6 6 8 9
107 6 11 12 13
108 6 12 15 16
109 6 15 18 19
110 6 18 20 21
111 6 20 24 25
112 6 24 26 27
113 6 26 28 29
114 6 28 31 32
115 6 33 34 35
116 6 34 36 37
117 6 36 38 39
118 6 38 42 43
119 6 42 44 45
120 6 44 46 47
121 6 46 48 49
122 6 52 53 54
123 6 53 56 57
124 6 56 60 61
125 6 60 63 64
126 6 65 66 67
127 6 66 68 69
128 6 68 70 71
129 6 70 72 73
130 6 76 77 78
131 6 77 79 80
132 6 83 84 85
133 6 84 87 88
134 6 87 90 91
135 6 92 93 94
136 6 95 96 97
137 6 98 99 100
138 6 99 103 104
139 6 103 105 106
140 6 105 109 110
141 6 109 111 112
142 6 113 114 115
143 6 114 116 117
144 6 116 119 120
145 6 119 121 122
146 6 124 125 126
147 6 125 127 128
148 6 127 129 130
149 6 129 134 135
150 6 134 137 138
151 6 137 139 140
152 6 139 141 142
153 6 141 143 144
154 6 143 145 146
155 6 145 147 148
156 6 147 149 150
157 6 149 153 154
158 6 153 155 156
159 6 155 157 158
160 6 157 159 160
161 6 159 161 162
162 6 161 164 165
163 6 164 167 168
164 6 167 171 172
165 6 171 173 174
166 6 175 176 177
167 6 176 178 179
168 6 178 181 182
169 6 181 183 184
170 6 183 185 186
171 6 190 191 192
172 6 191 193 194
173 6 193 196 197
174 6 196 199 200
175 6 199 202 203
176 6 202 204 205
177 6 204 206 207
178 6 206 209 210
179 6 209 211 212
180 6 211 213 214
181 6 213 215 216
182 6 217 218 219
183 6 218 222 223
184 6 222 224 225
185 6 224 227 228
186 6 230 231 232
187 6 231 233 234
188 6 233 235 236
189 7 8 9 10
190 7 12 13 14
191 7 15 16 17
192 8 20 21 22
193 8 20 21 23
194 7 28 29 30
195 8 38 39 40
196 8 38 39 41
197 7 48 49 50
198 7 53 54 55
199 8 56 57 58
200 8 56 57 59
201 7 60 61 62
202 8 72 73 74
203 8 72 73 75
204 8 79 80 81
205 8 79 80 82
206 7 84 85 86
207 7 87 88 89
208 8 99 100 101
209 8 99 100 102
210 8 105 106 107
211 8 105 106 108
212 7 116 117 118
213 7 121 122 123
214 9 129 130 131
215 10 129 130 132
216 7 134 135 136
217 8 149 150 151
218 8 149 150 152
219 7 161 162 163
220 7 164 165 166
221 8 167 168 169
222 8 167 168 170
223 7 178 179 180
224 8 185 186 187
225 8 185 186 188
226 7 193 194 195
227 7 196 197 198
228 7 199 200 201
229 7 206 207 208
230 8 218 219 220
231 8 218 219 221
232 7 224 225 226
233 7 227 228 229

Dihedrals

1 1 4 6 8 11
2 1 6 8 11 12
3 1 8 11 12 15
4 1 11 12 15 18
5 1 12 15 18 20
6 1 15 18 20 24
7 1 18 20 24 26
8 1 20 24 26 28
9 1 111 113 114 116
10 1 113 114 116 119
11 1 137 139 141 143
12 1 139 141 143 145
13 1 141 143 145 147
14 1 143 145 147 149
15 1 159 161 164 167
16 1 199 202 204 206
17 1 202 204 206 209
18 1 204 206 209 211
19 1 206 209 211 213
20 1 209 211 213 215
21 1 211 213 215 217
22 1 213 215 217 218
23 1 215 217 218 222
24 1 217 218 222 224
25 1 218 222 224 227
26 1 222 224 227 230
27 1 224 227 230 231
28 1 227 230 231 233

Impropers

1 1 20 22 23 21
2 1 38 40 41 39
3 1 56 58 59 57
4 1 72 74 75 73
5 1 79 81 82 80
6 1 99 101 102 100
7 1 105 107 108 106
8 1 129 131 132 130
9 2 130 131 133 132
10 1 149 151 152 150
11 1 167 169 170 168
12 1 185 187 188 186
13 1 218 220 221 219

