comment

236 atoms
248 bonds
233 angles
28 dihedrals
13 impropers

17 atom types
17 bond types
10 angle types
1 dihedral types
2 improper types

-40.5 40.5 xlo xhi
-40.5 40.5 ylo yhi
-190.0 190.0 zlo zhi

Masses

1 72.0
2 72.0
3 72.0
4 72.0
5 72.0
6 72.0
7 72.0
8 72.0
9 72.0
10 45.0
11 72.0
12 72.0
13 72.0
14 45.0
15 45.0
16 72.0
17 45.0

PairIJ Coeffs

1 1 1.19503 4.699999999999999
1 2 1.3384336 4.699999999999999
1 3 1.3384336 4.699999999999999
1 4 0.956024 4.699999999999999
1 5 0.478012 4.699999999999999
1 6 0.5497137999999999 4.699999999999999
1 7 0.836521 4.699999999999999
1 8 0.478012 4.699999999999999
1 9 1.19503 4.699999999999999
1 10 0.7409186 4.699999999999999
1 11 1.3384336 4.699999999999999
1 12 1.19503 4.699999999999999
1 13 0.7409186 4.699999999999999
1 14 0.6453162 4.699999999999999
1 15 1.19503 4.699999999999999
1 16 1.19503 4.699999999999999
1 17 0.956024 4.699999999999999
2 2 1.3384336 4.699999999999999
2 3 1.3384336 4.699999999999999
2 4 1.19503 4.699999999999999
2 5 0.5497137999999999 4.699999999999999
2 6 0.6453162 4.699999999999999
2 7 0.836521 4.699999999999999
2 8 0.478012 4.699999999999999
2 9 1.19503 4.699999999999999
2 10 0.7409186 4.699999999999999
2 11 1.3384336 4.699999999999999
2 12 1.19503 4.699999999999999
2 13 0.7409186 4.699999999999999
2 14 0.6453162 4.699999999999999
2 15 1.3384336 4.699999999999999
2 16 1.3384336 4.699999999999999
2 17 1.19503 4.699999999999999
3 3 1.19503 4.699999999999999
3 4 1.19503 4.699999999999999
3 5 0.478012 4.699999999999999
3 6 0.5497137999999999 4.699999999999999
3 7 0.836521 4.699999999999999
3 8 0.478012 4.699999999999999
3 9 0.956024 4.699999999999999
3 10 0.7409186 4.699999999999999
3 11 1.3384336 4.699999999999999
3 12 1.19503 4.699999999999999
3 13 0.7409186 4.699999999999999
3 14 0.6453162 4.699999999999999
3 15 1.19503 4.699999999999999
3 16 1.19503 4.699999999999999
3 17 1.19503 4.699999999999999
4 4 0.956024 4.699999999999999
4 5 0.6453162 4.699999999999999
4 6 0.6453162 4.699999999999999
4 7 0.836521 4.699999999999999
4 8 0.6453162 4.699999999999999
4 9 1.075527 4.699999999999999
4 10 0.836521 4.699999999999999
4 11 0.956024 4.699999999999999
4 12 1.075527 4.699999999999999
4 13 0.836521 4.699999999999999
4 14 0.7409186 4.699999999999999
4 15 1.075527 4.699999999999999
4 16 1.075527 4.699999999999999
4 17 0.956024 4.699999999999999
5 5 0.836521 4.699999999999999
5 6 0.836521 4.699999999999999
5 7 0.7409186 4.699999999999999
5 8 0.836521 4.699999999999999
5 9 0.6453162 4.699999999999999
5 10 0.7409186 4.699999999999999
5 11 0.5497137999999999 4.699999999999999
5 12 0.6453162 4.699999999999999
5 13 0.7409186 4.699999999999999
5 14 0.7409186 4.699999999999999
5 15 0.7409186 4.699999999999999
5 16 0.7409186 4.699999999999999
5 17 0.6453162 4.699999999999999
6 6 0.836521 4.699999999999999
6 7 0.836521 4.699999999999999
6 8 0.836521 4.699999999999999
6 9 0.6453162 4.699999999999999
6 10 0.836521 4.699999999999999
6 11 0.6453162 4.699999999999999
6 12 0.6453162 4.699999999999999
6 13 0.836521 4.699999999999999
6 14 0.836521 4.699999999999999
6 15 0.836521 4.699999999999999
6 16 0.836521 4.699999999999999
6 17 0.6453162 4.699999999999999
7 7 0.836521 4.699999999999999
7 8 0.6453162 4.699999999999999
7 9 0.836521 4.699999999999999
7 10 0.836521 4.699999999999999
7 11 0.836521 4.699999999999999
7 12 0.836521 4.699999999999999
7 13 0.836521 4.699999999999999
7 14 0.836521 4.699999999999999
7 15 0.956024 4.699999999999999
7 16 0.956024 4.699999999999999
7 17 0.836521 4.699999999999999
8 8 0.836521 4.699999999999999
8 9 0.6453162 4.699999999999999
8 10 0.7409186 4.699999999999999
8 11 0.478012 4.699999999999999
8 12 0.6453162 4.699999999999999
8 13 0.7409186 4.699999999999999
8 14 0.7409186 4.699999999999999
8 15 0.6453162 4.699999999999999
8 16 0.6453162 4.699999999999999
8 17 0.6453162 4.699999999999999
9 9 0.956024 4.699999999999999
9 10 0.836521 4.699999999999999
9 11 0.956024 4.699999999999999
9 12 1.075527 4.699999999999999
9 13 0.836521 4.699999999999999
9 14 0.7409186 4.699999999999999
9 15 1.075527 4.699999999999999
9 16 1.075527 4.699999999999999
9 17 1.075527 4.699999999999999
10 10 0.62739075 4.3
10 11 0.7409186 4.699999999999999
10 12 0.836521 4.699999999999999
10 13 0.836521 4.699999999999999
10 14 0.62739075 4.3
10 15 0.62739075 4.3
10 16 0.836521 4.699999999999999
10 17 0.62739075 4.3
11 11 1.19503 4.699999999999999
11 12 0.956024 4.699999999999999
11 13 0.7409186 4.699999999999999
11 14 0.6453162 4.699999999999999
11 15 1.075527 4.699999999999999
11 16 1.075527 4.699999999999999
11 17 0.956024 4.699999999999999
12 12 1.075527 4.699999999999999
12 13 0.836521 4.699999999999999
12 14 0.7409186 4.699999999999999
12 15 1.075527 4.699999999999999
12 16 1.075527 4.699999999999999
12 17 1.075527 4.699999999999999
13 13 0.836521 4.699999999999999
13 14 0.836521 4.699999999999999
13 15 0.836521 4.699999999999999
13 16 0.836521 4.699999999999999
13 17 0.836521 4.699999999999999
14 14 0.62739075 4.3
14 15 0.62739075 4.3
14 16 0.836521 4.699999999999999
14 17 0.5556889500000001 4.3
15 15 0.80664525 4.3
15 16 1.075527 4.699999999999999
15 17 0.80664525 4.3
16 16 1.075527 4.699999999999999
16 17 1.075527 4.699999999999999
17 17 0.7170179999999999 4.3

Bond Coeffs

1 1.4937875 3.5
2 8.962725 3.2
3 5.97515 4.0
4 5.97515 3.3000000000000003
5 5.97515 2.8000000000000003
6 8.962725 3.1
7 8.962725 3.0
8 5.97515 3.2
9 8.962725 3.3000000000000003
10 5.97515 3.4000000000000004
11 5.97515 3.0
12 2.987575 4.0
13 11.9503 3.3000000000000003
14 11.9503 3.1
15 11.9503 2.6500000000000004
16 11.9503 2.7
17 11.9503 2.6

Angle Coeffs

1 2.39006 127
2 83.6521 96
3 2.39006 100
4 2.39006 130
5 11.9503 98
6 2.987575 100
7 2.987575 180
8 5.97515 150
9 5.97515 210
10 5.97515 90

Dihedral Coeffs

1 95.6024 1 -120 0

Improper Coeffs

1 5.97515 0
2 23.9006 0

Atoms

1 1 1 1.0000 1.2549999 -0.027 -48.818
2 1 2 0.0000 0.0533721 -0.0220945 -50.826603
3 1 3 -1.0000 -0.93616796 -1.08453 -53.3597
4 1 4 0.0000 1.68458 2.14154 -54.1603
5 1 5 0.0000 3.25808 0.31541002 -55.588104
6 1 4 0.0000 1.4602201 5.15172 -54.6502
7 1 3 -1.0000 -1.89173 6.09661 -55.685
8 1 4 0.0000 4.21369 5.93219 -55.9919
9 1 6 0.0000 7.01608 4.06843 -54.8068
10 1 1 1.0000 8.29153 1.5919 -56.366802
11 1 4 0.0000 3.9810898 4.74872 -59.106102
12 1 7 0.0000 1.78143 6.99561 -60.0943
13 1 6 0.0000 -1.38133 6.7253203 -60.921898
14 1 1 1.0000 -3.96141 6.1330404 -59.7054
15 1 7 0.0000 3.67375 9.59174 -59.295902
16 1 6 0.0000 2.2550101 11.1449 -56.7861
17 1 1 1.0000 0.577871 9.914619 -54.6207
18 1 7 0.0000 6.0366898 8.95274 -61.3452
19 1 8 0.0000 8.20329 6.87154 -60.0066
20 1 9 0.0000 4.25198 9.4908 -64.1514
21 1 10 0.0000 5.05116 9.6012 -67.2848
22 1 10 0.0000 4.86939 9.80696 -69.6742
23 1 10 0.0000 6.8234596 8.57319 -69.266
24 1 9 0.0000 3.46317 12.6614 -63.7673
25 1 5 0.0000 1.52784 14.7655 -63.5667
26 1 9 0.0000 6.68486 14.0768 -63.3983
27 1 11 0.0000 4.94199 17.4634 -64.9052
28 1 9 0.0000 8.06014 13.1723 -65.986
29 1 6 0.0000 9.540871 10.275499 -65.394905
30 1 1 1.0000 11.3923 8.678781 -64.7283
31 1 12 0.0000 7.30307 13.8669 -68.979805
32 1 13 0.0000 8.95167 13.9846 -71.093605
33 1 7 0.0000 3.54392 14.3896 -68.8996
34 1 12 0.0000 1.1596 12.7284 -68.390396
35 1 11 0.0000 -1.40765 16.0299 -68.2828
36 1 12 0.0000 -0.0764667 12.3708 -71.6091
37 1 13 0.0000 -0.517802 15.7318 -71.5051
38 1 2 0.0000 -0.112007 8.987511 -70.8875
39 1 14 0.0000 2.08097 7.5518203 -72.4337
40 1 15 0.0000 3.71791 5.59809 -72.3451
41 1 15 0.0000 4.01869 7.1984797 -74.1241
42 1 2 0.0000 -3.28094 7.8232903 -71.4371
43 1 16 0.0000 -4.10335 8.06209 -73.6726
44 1 2 0.0000 -4.6455803 7.01088 -68.1696
45 1 5 0.0000 -3.2266 4.68523 -67.6084
46 1 2 0.0000 -6.48981 6.46729 -64.325096
47 1 3 -1.0000 -5.2107196 9.81263 -62.6107
48 1 12 0.0000 -10.3424 4.2831097 -64.446
49 1 6 0.0000 -11.684199 2.5218601 -61.7658
50 1 1 1.0000 -11.616401 1.50487 -59.0056
51 1 12 0.0000 -12.5812 5.67871 -66.4436
52 1 2 0.0000 -9.53493 8.069941 -67.318405
53 1 2 0.0000 -9.53646 10.7382 -66.2303
54 1 6 0.0000 -10.5784 9.24399 -63.1106
55 1 1 1.0000 -9.23373 7.86725 -60.5785
56 1 2 0.0000 -9.04631 12.8211 -70.4078
57 1 14 0.0000 -9.99682 10.3185 -72.2092
58 1 15 0.0000 -8.80457 8.10826 -72.2583
59 1 15 0.0000 -11.4071 8.16974 -72.0916
60 1 2 0.0000 -5.22476 12.564301 -71.7405
61 1 6 0.0000 -4.42754 11.891399 -68.7603
62 1 1 1.0000 -3.4493499 11.5702 -66.3532
63 1 2 0.0000 -3.33849 12.2943 -76.3502
64 1 16 0.0000 -3.73302 14.9183 -77.0457
65 1 2 0.0000 -1.102 10.418 -76.6606
66 1 11 0.0000 -0.144842 6.81453 -77.140495
67 1 6 0.0000 1.4086901 5.8955903 -79.2316
68 1 2 0.0000 -1.02756 4.01032 -74.9866
69 1 2 0.0000 -4.13672 3.85622 -76.4488
70 1 2 0.0000 -1.92835 2.14045 -72.5585
71 1 8 0.0000 0.0799592 2.26631 -70.443
72 1 12 0.0000 -5.8345995 2.63186 -74.2655
73 1 14 0.0000 -6.9332304 3.2943 -71.205505
74 1 15 0.0000 -9.27932 3.97864 -70.3845
75 1 15 0.0000 -7.4677 3.05701 -68.5298
76 1 12 0.0000 -7.4131603 -1.10454 -73.6552
77 1 2 0.0000 -5.1440296 -1.88356 -71.3563
78 1 8 0.0000 -4.45281 -0.58871996 -68.7112
79 1 12 0.0000 -5.86699 -5.19711 -70.153496
80 1 10 0.0000 -4.74973 -6.0492096 -67.579895
81 1 10 0.0000 -3.85401 -5.58788 -65.1219
82 1 10 0.0000 -6.0816 -6.9611597 -65.3003
83 1 12 0.0000 -5.24876 -7.64326 -72.6364
84 1 2 0.0000 -5.4325495 -6.95741 -76.350494
85 1 7 0.0000 -3.80672 -4.4324403 -75.8544
86 1 1 1.0000 -2.98451 -1.4091899 -75.7109
87 1 2 0.0000 -3.7934399 -7.76507 -79.3547
88 1 6 0.0000 -0.991763 -9.02888 -80.3473
89 1 1 1.0000 0.421375 -10.417399 -81.8232
90 1 12 0.0000 -1.9021399 -3.9962301 -80.238106
91 1 16 0.0000 0.21349502 -3.9504 -78.6643
92 1 12 0.0000 -5.4993496 -3.0162501 -81.16881
93 1 2 0.0000 -6.78405 -0.711784 -79.0217
94 1 11 0.0000 -8.974811 -3.4643998 -77.5002
95 1 11 0.0000 -8.25206 2.00816 -78.488304
96 1 7 0.0000 -9.98531 4.5798297 -75.946495
97 1 6 0.0000 -12.3237 2.67889 -74.8302
98 1 12 0.0000 -8.3045 6.94982 -76.8345
99 1 2 0.0000 -7.90654 5.73471 -80.921005
100 1 10 0.0000 -7.55044 7.6206303 -82.8624
101 1 10 0.0000 -5.61403 7.9883804 -84.8016
102 1 10 0.0000 -7.2283297 10.174299 -84.1764
103 1 2 0.0000 -4.73425 2.9453099 -81.87141
104 1 16 0.0000 -5.7345495 1.76067 -83.9582
105 1 2 0.0000 -2.1128001 5.4023404 -82.7512
106 1 14 0.0000 -2.9590402 8.3208 -81.269905
107 1 14 0.0000 -4.64012 9.41491 -79.5204
108 1 15 0.0000 -2.9886699 10.964499 -81.1263
109 1 2 0.0000 -1.091 4.33418 -85.5257
110 1 16 0.0000 -2.1946301 5.61877 -87.7748
111 1 4 0.0000 1.70418 3.0069802 -85.6804
112 1 3 -1.0000 2.26016 1.3168501 -87.9104
113 1 7 0.0000 2.64965 2.25082 -82.798904
114 1 12 0.0000 -0.292646 0.73011804 -81.903496
115 1 2 0.0000 -0.0102661 1.01033 -79.101
116 1 12 0.0000 -0.225033 -1.53804 -84.15379
117 1 6 0.0000 -2.36721 -0.697655 -86.826096
118 1 1 1.0000 -1.85221 0.449704 -89.4335
119 1 9 0.0000 2.45432 -2.9787703 -83.1628
120 1 2 0.0000 4.24721 -2.50361 -85.7977
121 1 2 0.0000 4.4133 -5.1729603 -81.0255
122 1 6 0.0000 7.7459598 -4.64824 -81.2549
123 1 1 1.0000 9.92526 -5.07457 -79.5156
124 1 2 0.0000 4.4068 -7.7060995 -79.817
125 1 2 0.0000 3.00069 -7.98302 -76.8187
126 1 8 0.0000 2.83988 -11.0693 -76.398705
127 1 2 0.0000 0.267996 -7.5364203 -74.5473
128 1 16 0.0000 -0.95332897 -9.90942 -74.921196
129 1 2 0.0000 -0.672765 -8.568689 -70.1652
130 1 14 0.0000 -1.1269 -5.37895 -70.5761
131 1 17 0.0000 -0.0087847 -3.2372901 -71.797195
132 1 10 0.0000 -0.0817002 -5.36724 -73.1626
133 1 10 0.0000 0.932931 -2.70429 -74.1383
134 1 2 0.0000 0.320791 -8.68859 -66.5976
135 1 6 0.0000 2.9569302 -10.6807995 -67.3408
136 1 1 1.0000 4.45944 -11.7562 -65.3653
137 1 4 0.0000 2.57107 -6.34592 -66.037994
138 1 3 -1.0000 5.2659397 -7.76128 -62.6789
139 1 4 0.0000 5.15747 -7.74582 -67.5898
140 1 3 -1.0000 6.2929897 -8.10637 -63.5276
141 1 4 0.0000 4.53438 -6.38183 -70.7859
142 1 16 0.0000 4.94096 -8.565001 -72.2988
143 1 12 0.0000 4.81649 -3.55806 -69.441696
144 1 8 0.0000 3.85442 -0.624256 -70.158
145 1 9 0.0000 7.91318 -3.5183098 -68.7226
146 1 13 0.0000 10.5935 -6.20991 -66.6534
147 1 9 0.0000 9.00819 -3.3407598 -71.9802
148 1 3 -1.0000 11.804 -3.96992 -74.9994
149 1 9 0.0000 7.6137104 -0.43699202 -72.628006
150 1 14 0.0000 5.5168495 0.992595 -74.7315
151 1 14 0.0000 4.32465 3.04235 -76.3163
152 1 15 0.0000 2.86795 1.30318 -74.7762
153 1 12 0.0000 9.26786 1.52942 -71.3123
154 1 8 0.0000 7.14827 3.59269 -70.0872
155 1 12 0.0000 12.406799 0.733056 -72.201904
156 1 3 -1.0000 16.355999 0.175709 -71.097
157 1 2 0.0000 13.2565 3.4469101 -73.8016
158 1 2 0.0000 15.8572 3.7708802 -74.5914
159 1 7 0.0000 10.243599 3.69527 -75.5365
160 1 6 0.0000 8.75764 5.2972603 -74.2867
161 1 12 0.0000 11.0929 3.51515 -78.5803
162 1 6 0.0000 12.315599 6.50914 -79.4663
163 1 1 1.0000 11.556999 8.92521 -80.570496
164 1 12 0.0000 11.4536 0.24104801 -78.7258
165 1 6 0.0000 14.2553 0.00560458 -76.9643
166 1 1 1.0000 15.3848 -1.3642 -75.453804
167 1 12 0.0000 8.59438 -0.458081 -77.9226
168 1 14 0.0000 6.9419003 -2.6049302 -76.657
169 1 14 0.0000 4.8403997 -3.82971 -75.245804
170 1 15 0.0000 6.80338 -5.0539 -75.7879
171 1 2 0.0000 6.71592 0.0806363 -80.42909
172 1 8 0.0000 4.10821 -1.07494 -79.1531
173 1 7 0.0000 7.00453 -0.231266 -83.2214
174 1 6 0.0000 9.25694 -1.02869 -85.1037
175 1 12 0.0000 9.47161 3.64687 -82.986496
176 1 2 0.0000 6.8705897 4.2128 -81.058105
177 1 16 0.0000 7.1382804 6.02659 -79.0756
178 1 2 0.0000 5.51786 6.6053896 -83.5592
179 1 6 0.0000 6.89977 4.75777 -85.709496
180 1 1 1.0000 6.57683 2.7050302 -87.570404
181 1 2 0.0000 2.8226302 8.93414 -83.7823
182 1 13 0.0000 1.62956 8.6643305 -87.1586
183 1 2 0.0000 2.6364202 11.6052 -80.8368
184 1 8 0.0000 0.552355 14.0337 -80.63541
185 1 2 0.0000 4.42029 11.2288 -77.606804
186 1 10 0.0000 2.8531399 13.1143 -75.655
187 1 10 0.0000 3.23951 15.5124 -74.4662
188 1 10 0.0000 1.29843 15.3314 -76.0298
189 1 11 0.0000 7.44246 10.4849 -76.9209
190 1 2 0.0000 10.138201 9.97019 -74.8536
191 1 2 0.0000 11.2878 7.9526196 -71.2393
192 1 8 0.0000 12.873 10.2806 -69.8301
193 1 2 0.0000 11.799801 4.9274297 -68.5603
194 1 6 0.0000 14.6509 4.73139 -69.3267
195 1 1 1.0000 17.177 3.9079401 -68.736404
196 1 2 0.0000 15.3241005 0.995028 -65.801605
197 1 6 0.0000 17.5383 2.29791 -63.6758
198 1 1 1.0000 19.0411 4.33352 -62.473698
199 1 4 0.0000 14.1149 -1.2059801 -63.7078
200 1 6 0.0000 11.7630005 -3.6755202 -62.465
201 1 1 1.0000 8.78093 -4.59018 -62.1148
202 1 4 0.0000 12.7284 0.861144 -61.904404
203 1 16 0.0000 11.883699 0.504025 -59.4759
204 1 4 0.0000 11.9881 3.10634 -63.850197
205 1 3 -1.0000 14.994 5.98103 -64.563995
206 1 4 0.0000 10.2253 1.0983 -65.842804
207 1 7 0.0000 11.9245 -1.3017399 -67.9313
208 1 1 1.0000 13.7519 -3.79303 -70.3731
209 1 7 0.0000 8.583449 -0.25216198 -63.663998
210 1 3 -1.0000 6.70035 -1.28735 -59.828102
211 1 7 0.0000 6.95826 2.38925 -62.2105
212 1 3 -1.0000 6.19169 -0.526277 -59.8971
213 1 7 0.0000 5.51924 3.04904 -64.9424
214 1 8 0.0000 7.2205696 5.73048 -65.4475
215 1 7 0.0000 4.22206 0.244232 -65.1147
216 1 8 0.0000 4.88752 -2.58692 -64.9291
217 1 13 0.0000 2.52742 0.84234107 -62.3347
218 1 7 0.0000 0.588081 2.96391 -63.6758
219 1 14 0.0000 1.39181 5.3595695 -65.4716
220 1 14 0.0000 2.40132 5.8054695 -67.9665
221 1 15 0.0000 0.527389 7.37187 -66.6657
222 1 7 0.0000 -0.71448696 0.872322 -65.7592
223 1 8 0.0000 0.404844 -2.07789 -67.1772
224 1 7 0.0000 -1.80066 -0.95736396 -63.2621
225 1 6 0.0000 0.72109497 -3.7535799 -62.1474
226 1 1 1.0000 3.1909702 -4.3270497 -60.5206
227 1 9 0.0000 -3.39445 1.37354 -61.9722
228 1 6 0.0000 -2.5244298 1.59325 -58.7496
229 1 1 1.0000 -4.21379 1.68949 -56.743202
230 1 7 0.0000 -5.4316196 2.00453 -64.3593
231 1 9 0.0000 -7.101 -0.85403395 -64.1848
232 1 16 0.0000 -8.69819 -1.43138 -66.4282
233 1 9 0.0000 -7.63813 -0.78137803 -60.9424
234 1 2 0.0000 -5.51544 -2.6182601 -59.333603
235 1 3 -1.0000 -7.25724 2.8174498 -60.302002
236 1 3 -1.0000 -8.16959 4.33446 -57.6923

Bonds

1 1 1 2
2 1 31 33
3 1 33 34
4 1 34 36
5 1 36 38
6 1 38 42
7 1 42 44
8 1 44 46
9 1 46 48
10 1 48 51
11 1 51 52
12 1 52 53
13 1 53 56
14 1 56 60
15 1 60 63
16 1 63 65
17 1 65 66
18 1 66 68
19 1 68 70
20 1 70 72
21 1 72 76
22 1 76 77
23 1 77 79
24 1 79 83
25 1 83 84
26 1 84 87
27 1 87 90
28 1 90 92
29 1 92 93
30 1 93 95
31 1 95 96
32 1 96 98
33 1 98 99
34 1 99 103
35 1 103 105
36 1 105 109
37 1 121 124
38 1 124 125
39 1 125 127
40 1 127 129
41 1 129 134
42 1 153 155
43 1 155 157
44 1 171 173
45 1 173 175
46 1 175 176
47 1 176 178
48 1 178 181
49 1 181 183
50 1 183 185
51 1 185 189
52 1 189 190
53 1 190 191
54 1 191 193
55 1 193 196
56 2 2 3
57 3 6 7
58 4 8 9
59 5 9 10
60 4 12 13
61 5 13 14
62 4 15 16
63 5 16 17
64 6 20 21
65 3 26 27
66 4 28 29
67 5 29 30
68 6 31 32
69 3 34 35
70 6 36 37
71 2 38 39
72 3 46 47
73 4 48 49
74 5 49 50
75 4 53 54
76 5 54 55
77 2 56 57
78 4 60 61
79 5 61 62
80 7 66 67
81 8 68 69
82 9 70 71
83 2 72 73
84 9 77 78
85 6 79 80
86 4 84 85
87 10 85 86
88 4 87 88
89 5 88 89
90 3 93 94
91 7 96 97
92 6 99 100
93 8 105 106
94 2 111 112
95 8 114 115
96 4 116 117
97 5 117 118
98 8 119 120
99 4 121 122
100 5 122 123
101 11 129 130
102 4 134 135
103 5 135 136
104 3 137 138
105 3 139 140
106 9 143 144
107 12 145 146
108 3 147 148
109 8 149 150
110 9 153 154
111 3 155 156
112 8 157 158
113 7 159 160
114 4 161 162
115 5 162 163
116 4 164 165
117 5 165 166
118 8 167 168
119 7 173 174
120 4 178 179
121 5 179 180
122 12 181 182
123 6 185 186
124 4 193 194
125 5 194 195
126 4 196 197
127 5 197 198
128 4 199 200
129 5 200 201
130 3 204 205
131 4 206 207
132 10 207 208
133 3 209 210
134 2 211 212
135 9 213 214
136 8 218 219
137 9 222 223
138 4 224 225
139 5 225 226
140 4 227 228
141 5 228 229
142 8 233 234
143 3 235 236
144 13 2 4
145 14 4 6
146 14 6 8
147 14 8 11
148 14 11 12
149 14 12 15
150 14 15 18
151 14 18 20
152 14 20 24
153 14 24 26
154 14 26 28
155 13 28 31
156 13 109 111
157 14 111 113
158 14 113 114
159 14 114 116
160 14 116 119
161 13 119 121
162 13 134 137
163 14 137 139
164 14 139 141
165 14 141 143
166 14 143 145
167 14 145 147
168 14 147 149
169 13 149 153
170 13 157 159
171 14 159 161
172 14 161 164
173 14 164 167
174 13 167 171
175 13 196 199
176 14 199 202
177 14 202 204
178 14 204 206
179 14 206 209
180 14 209 211
181 14 211 213
182 14 213 215
183 14 215 217
184 14 217 218
185 14 218 222
186 14 222 224
187 14 224 227
188 14 227 230
189 14 230 231
190 14 231 233
191 13 233 235
192 15 4 5
193 14 18 19
194 16 21 22
195 16 21 23
196 16 22 23
197 15 24 25
198 16 39 40
199 16 39 41
200 16 40 41
201 17 42 43
202 15 44 45
203 16 57 58
204 16 57 59
205 16 58 59
206 17 63 64
207 16 73 74
208 16 73 75
209 16 74 75
210 16 80 81
211 16 80 82
212 16 81 82
213 17 90 91
214 16 100 101
215 16 100 102
216 16 101 102
217 17 103 104
218 16 106 107
219 16 106 108
220 16 107 108
221 17 109 110
222 14 125 126
223 17 127 128
224 16 130 131
225 16 130 132
226 16 131 132
227 16 131 133
228 16 132 133
229 17 141 142
230 16 150 151
231 16 150 152
232 16 151 152
233 16 168 169
234 16 168 170
235 16 169 170
236 14 171 172
237 17 176 177
238 14 183 184
239 16 186 187
240 16 186 188
241 16 187 188
242 14 191 192
243 17 202 203
244 14 215 216
245 16 219 220
246 16 219 221
247 16 220 221
248 17 231 232

Angles

1 1 1 2 4
2 1 2 4 6
3 2 4 6 8
4 2 6 8 11
5 2 8 11 12
6 2 11 12 15
7 2 12 15 18
8 2 15 18 20
9 2 18 20 24
10 2 20 24 26
11 2 24 26 28
12 3 26 28 31
13 3 28 31 33
14 3 31 33 34
15 3 33 34 36
16 3 34 36 38
17 3 36 38 42
18 1 38 42 44
19 1 42 44 46
20 3 44 46 48
21 3 46 48 51
22 3 48 51 52
23 3 51 52 53
24 1 52 53 56
25 1 53 56 60
26 1 56 60 63
27 1 60 63 65
28 4 63 65 66
29 1 65 66 68
30 1 66 68 70
31 3 68 70 72
32 3 70 72 76
33 3 72 76 77
34 3 76 77 79
35 3 77 79 83
36 3 79 83 84
37 3 83 84 87
38 3 84 87 90
39 3 87 90 92
40 3 90 92 93
41 3 92 93 95
42 1 93 95 96
43 3 95 96 98
44 3 96 98 99
45 3 98 99 103
46 1 99 103 105
47 1 103 105 109
48 1 105 109 111
49 1 109 111 113
50 2 111 113 114
51 2 113 114 116
52 2 114 116 119
53 1 116 119 121
54 1 119 121 124
55 1 121 124 125
56 1 124 125 127
57 1 125 127 129
58 1 127 129 134
59 1 129 134 137
60 4 134 137 139
61 2 137 139 141
62 2 139 141 143
63 2 141 143 145
64 2 143 145 147
65 2 145 147 149
66 3 147 149 153
67 3 149 153 155
68 3 153 155 157
69 3 155 157 159
70 5 157 159 161
71 5 159 161 164
72 2 161 164 167
73 4 164 167 171
74 4 167 171 173
75 3 171 173 175
76 3 173 175 176
77 3 175 176 178
78 1 176 178 181
79 1 178 181 183
80 1 181 183 185
81 1 183 185 189
82 1 185 189 190
83 1 189 190 191
84 1 190 191 193
85 1 191 193 196
86 1 193 196 199
87 4 196 199 202
88 2 199 202 204
89 2 202 204 206
90 2 204 206 209
91 2 206 209 211
92 2 209 211 213
93 2 211 213 215
94 2 213 215 217
95 2 215 217 218
96 2 217 218 222
97 2 218 222 224
98 2 222 224 227
99 2 224 227 230
100 2 227 230 231
101 2 230 231 233
102 1 231 233 235
103 6 1 2 3
104 6 2 4 5
105 6 4 6 7
106 6 6 8 9
107 6 11 12 13
108 6 12 15 16
109 6 15 18 19
110 6 18 20 21
111 6 20 24 25
112 6 24 26 27
113 6 26 28 29
114 6 28 31 32
115 6 33 34 35
116 6 34 36 37
117 6 36 38 39
118 6 38 42 43
119 6 42 44 45
120 6 44 46 47
121 6 46 48 49
122 6 52 53 54
123 6 53 56 57
124 6 56 60 61
125 6 60 63 64
126 6 65 66 67
127 6 66 68 69
128 6 68 70 71
129 6 70 72 73
130 6 76 77 78
131 6 77 79 80
132 6 83 84 85
133 6 84 87 88
134 6 87 90 91
135 6 92 93 94
136 6 95 96 97
137 6 98 99 100
138 6 99 103 104
139 6 103 105 106
140 6 105 109 110
141 6 109 111 112
142 6 113 114 115
143 6 114 116 117
144 6 116 119 120
145 6 119 121 122
146 6 124 125 126
147 6 125 127 128
148 6 127 129 130
149 6 129 134 135
150 6 134 137 138
151 6 137 139 140
152 6 139 141 142
153 6 141 143 144
154 6 143 145 146
155 6 145 147 148
156 6 147 149 150
157 6 149 153 154
158 6 153 155 156
159 6 155 157 158
160 6 157 159 160
161 6 159 161 162
162 6 161 164 165
163 6 164 167 168
164 6 167 171 172
165 6 171 173 174
166 6 175 176 177
167 6 176 178 179
168 6 178 181 182
169 6 181 183 184
170 6 183 185 186
171 6 190 191 192
172 6 191 193 194
173 6 193 196 197
174 6 196 199 200
175 6 199 202 203
176 6 202 204 205
177 6 204 206 207
178 6 206 209 210
179 6 209 211 212
180 6 211 213 214
181 6 213 215 216
182 6 217 218 219
183 6 218 222 223
184 6 222 224 225
185 6 224 227 228
186 6 230 231 232
187 6 231 233 234
188 6 233 235 236
189 7 8 9 10
190 7 12 13 14
191 7 15 16 17
192 8 20 21 22
193 8 20 21 23
194 7 28 29 30
195 8 38 39 40
196 8 38 39 41
197 7 48 49 50
198 7 53 54 55
199 8 56 57 58
200 8 56 57 59
201 7 60 61 62
202 8 72 73 74
203 8 72 73 75
204 8 79 80 81
205 8 79 80 82
206 7 84 85 86
207 7 87 88 89
208 8 99 100 101
209 8 99 100 102
210 8 105 106 107
211 8 105 106 108
212 7 116 117 118
213 7 121 122 123
214 9 129 130 131
215 10 129 130 132
216 7 134 135 136
217 8 149 150 151
218 8 149 150 152
219 7 161 162 163
220 7 164 165 166
221 8 167 168 169
222 8 167 168 170
223 7 178 179 180
224 8 185 186 187
225 8 185 186 188
226 7 193 194 195
227 7 196 197 198
228 7 199 200 201
229 7 206 207 208
230 8 218 219 220
231 8 218 219 221
232 7 224 225 226
233 7 227 228 229

Dihedrals

1 1 4 6 8 11
2 1 6 8 11 12
3 1 8 11 12 15
4 1 11 12 15 18
5 1 12 15 18 20
6 1 15 18 20 24
7 1 18 20 24 26
8 1 20 24 26 28
9 1 111 113 114 116
10 1 113 114 116 119
11 1 137 139 141 143
12 1 139 141 143 145
13 1 141 143 145 147
14 1 143 145 147 149
15 1 159 161 164 167
16 1 199 202 204 206
17 1 202 204 206 209
18 1 204 206 209 211
19 1 206 209 211 213
20 1 209 211 213 215
21 1 211 213 215 217
22 1 213 215 217 218
23 1 215 217 218 222
24 1 217 218 222 224
25 1 218 222 224 227
26 1 222 224 227 230
27 1 224 227 230 231
28 1 227 230 231 233

Impropers

1 1 20 22 23 21
2 1 38 40 41 39
3 1 56 58 59 57
4 1 72 74 75 73
5 1 79 81 82 80
6 1 99 101 102 100
7 1 105 107 108 106
8 1 129 131 132 130
9 2 130 131 133 132
10 1 149 151 152 150
11 1 167 169 170 168
12 1 185 187 188 186
13 1 218 220 221 219

