comment

236 atoms
248 bonds
233 angles
28 dihedrals
13 impropers

17 atom types
17 bond types
10 angle types
1 dihedral types
2 improper types

-40.5 40.5 xlo xhi
-40.5 40.5 ylo yhi
-190.0 190.0 zlo zhi

Masses

1 72.0
2 72.0
3 72.0
4 72.0
5 72.0
6 72.0
7 72.0
8 72.0
9 72.0
10 45.0
11 72.0
12 72.0
13 72.0
14 45.0
15 45.0
16 72.0
17 45.0

PairIJ Coeffs

1 1 1.19503 4.699999999999999
1 2 1.3384336 4.699999999999999
1 3 1.3384336 4.699999999999999
1 4 0.956024 4.699999999999999
1 5 0.478012 4.699999999999999
1 6 0.5497137999999999 4.699999999999999
1 7 0.836521 4.699999999999999
1 8 0.478012 4.699999999999999
1 9 1.19503 4.699999999999999
1 10 0.7409186 4.699999999999999
1 11 1.3384336 4.699999999999999
1 12 1.19503 4.699999999999999
1 13 0.7409186 4.699999999999999
1 14 0.6453162 4.699999999999999
1 15 1.19503 4.699999999999999
1 16 1.19503 4.699999999999999
1 17 0.956024 4.699999999999999
2 2 1.3384336 4.699999999999999
2 3 1.3384336 4.699999999999999
2 4 1.19503 4.699999999999999
2 5 0.5497137999999999 4.699999999999999
2 6 0.6453162 4.699999999999999
2 7 0.836521 4.699999999999999
2 8 0.478012 4.699999999999999
2 9 1.19503 4.699999999999999
2 10 0.7409186 4.699999999999999
2 11 1.3384336 4.699999999999999
2 12 1.19503 4.699999999999999
2 13 0.7409186 4.699999999999999
2 14 0.6453162 4.699999999999999
2 15 1.3384336 4.699999999999999
2 16 1.3384336 4.699999999999999
2 17 1.19503 4.699999999999999
3 3 1.19503 4.699999999999999
3 4 1.19503 4.699999999999999
3 5 0.478012 4.699999999999999
3 6 0.5497137999999999 4.699999999999999
3 7 0.836521 4.699999999999999
3 8 0.478012 4.699999999999999
3 9 0.956024 4.699999999999999
3 10 0.7409186 4.699999999999999
3 11 1.3384336 4.699999999999999
3 12 1.19503 4.699999999999999
3 13 0.7409186 4.699999999999999
3 14 0.6453162 4.699999999999999
3 15 1.19503 4.699999999999999
3 16 1.19503 4.699999999999999
3 17 1.19503 4.699999999999999
4 4 0.956024 4.699999999999999
4 5 0.6453162 4.699999999999999
4 6 0.6453162 4.699999999999999
4 7 0.836521 4.699999999999999
4 8 0.6453162 4.699999999999999
4 9 1.075527 4.699999999999999
4 10 0.836521 4.699999999999999
4 11 0.956024 4.699999999999999
4 12 1.075527 4.699999999999999
4 13 0.836521 4.699999999999999
4 14 0.7409186 4.699999999999999
4 15 1.075527 4.699999999999999
4 16 1.075527 4.699999999999999
4 17 0.956024 4.699999999999999
5 5 0.836521 4.699999999999999
5 6 0.836521 4.699999999999999
5 7 0.7409186 4.699999999999999
5 8 0.836521 4.699999999999999
5 9 0.6453162 4.699999999999999
5 10 0.7409186 4.699999999999999
5 11 0.5497137999999999 4.699999999999999
5 12 0.6453162 4.699999999999999
5 13 0.7409186 4.699999999999999
5 14 0.7409186 4.699999999999999
5 15 0.7409186 4.699999999999999
5 16 0.7409186 4.699999999999999
5 17 0.6453162 4.699999999999999
6 6 0.836521 4.699999999999999
6 7 0.836521 4.699999999999999
6 8 0.836521 4.699999999999999
6 9 0.6453162 4.699999999999999
6 10 0.836521 4.699999999999999
6 11 0.6453162 4.699999999999999
6 12 0.6453162 4.699999999999999
6 13 0.836521 4.699999999999999
6 14 0.836521 4.699999999999999
6 15 0.836521 4.699999999999999
6 16 0.836521 4.699999999999999
6 17 0.6453162 4.699999999999999
7 7 0.836521 4.699999999999999
7 8 0.6453162 4.699999999999999
7 9 0.836521 4.699999999999999
7 10 0.836521 4.699999999999999
7 11 0.836521 4.699999999999999
7 12 0.836521 4.699999999999999
7 13 0.836521 4.699999999999999
7 14 0.836521 4.699999999999999
7 15 0.956024 4.699999999999999
7 16 0.956024 4.699999999999999
7 17 0.836521 4.699999999999999
8 8 0.836521 4.699999999999999
8 9 0.6453162 4.699999999999999
8 10 0.7409186 4.699999999999999
8 11 0.478012 4.699999999999999
8 12 0.6453162 4.699999999999999
8 13 0.7409186 4.699999999999999
8 14 0.7409186 4.699999999999999
8 15 0.6453162 4.699999999999999
8 16 0.6453162 4.699999999999999
8 17 0.6453162 4.699999999999999
9 9 0.956024 4.699999999999999
9 10 0.836521 4.699999999999999
9 11 0.956024 4.699999999999999
9 12 1.075527 4.699999999999999
9 13 0.836521 4.699999999999999
9 14 0.7409186 4.699999999999999
9 15 1.075527 4.699999999999999
9 16 1.075527 4.699999999999999
9 17 1.075527 4.699999999999999
10 10 0.62739075 4.3
10 11 0.7409186 4.699999999999999
10 12 0.836521 4.699999999999999
10 13 0.836521 4.699999999999999
10 14 0.62739075 4.3
10 15 0.62739075 4.3
10 16 0.836521 4.699999999999999
10 17 0.62739075 4.3
11 11 1.19503 4.699999999999999
11 12 0.956024 4.699999999999999
11 13 0.7409186 4.699999999999999
11 14 0.6453162 4.699999999999999
11 15 1.075527 4.699999999999999
11 16 1.075527 4.699999999999999
11 17 0.956024 4.699999999999999
12 12 1.075527 4.699999999999999
12 13 0.836521 4.699999999999999
12 14 0.7409186 4.699999999999999
12 15 1.075527 4.699999999999999
12 16 1.075527 4.699999999999999
12 17 1.075527 4.699999999999999
13 13 0.836521 4.699999999999999
13 14 0.836521 4.699999999999999
13 15 0.836521 4.699999999999999
13 16 0.836521 4.699999999999999
13 17 0.836521 4.699999999999999
14 14 0.62739075 4.3
14 15 0.62739075 4.3
14 16 0.836521 4.699999999999999
14 17 0.5556889500000001 4.3
15 15 0.80664525 4.3
15 16 1.075527 4.699999999999999
15 17 0.80664525 4.3
16 16 1.075527 4.699999999999999
16 17 1.075527 4.699999999999999
17 17 0.7170179999999999 4.3

Bond Coeffs

1 1.4937875 3.5
2 8.962725 3.2
3 5.97515 4.0
4 5.97515 3.3000000000000003
5 5.97515 2.8000000000000003
6 8.962725 3.1
7 8.962725 3.0
8 5.97515 3.2
9 8.962725 3.3000000000000003
10 5.97515 3.4000000000000004
11 5.97515 3.0
12 2.987575 4.0
13 11.9503 3.3000000000000003
14 11.9503 3.1
15 11.9503 2.6500000000000004
16 11.9503 2.7
17 11.9503 2.6

Angle Coeffs

1 2.39006 127
2 83.6521 96
3 2.39006 100
4 2.39006 130
5 11.9503 98
6 2.987575 100
7 2.987575 180
8 5.97515 150
9 5.97515 210
10 5.97515 90

Dihedral Coeffs

1 95.6024 1 -120 0

Improper Coeffs

1 5.97515 0
2 23.9006 0

Atoms

1 1 1 1.0000 1.2549999 -0.027 -48.818
2 1 2 0.0000 0.0340236 0.286758 -51.067802
3 1 3 -1.0000 -0.991541 -0.867163 -52.9772
4 1 4 0.0000 1.88751 2.16472 -54.3605
5 1 5 0.0000 2.60858 0.136479 -55.8033
6 1 4 0.0000 1.46981 5.0844 -54.6417
7 1 3 -1.0000 -1.66218 6.21192 -56.0391
8 1 4 0.0000 4.29733 6.0129204 -55.971798
9 1 6 0.0000 7.1724997 4.56457 -55.662197
10 1 1 1.0000 7.78876 2.72452 -57.439
11 1 4 0.0000 3.859 4.91925 -59.1644
12 1 7 0.0000 1.6889701 6.92972 -59.8082
13 1 6 0.0000 -1.75004 6.3016996 -60.9556
14 1 1 1.0000 -4.52727 6.28636 -60.4096
15 1 7 0.0000 3.57671 9.49298 -59.3318
16 1 6 0.0000 2.11923 11.3199 -56.789097
17 1 1 1.0000 0.273218 10.5299 -54.3317
18 1 7 0.0000 5.95813 8.927011 -61.497
19 1 8 0.0000 8.47225 7.3469596 -60.484
20 1 9 0.0000 4.29426 9.37612 -64.2417
21 1 10 0.0000 5.0300903 9.21826 -67.433
22 1 10 0.0000 4.6424003 10.1038 -70.2266
23 1 10 0.0000 6.58617 8.51936 -69.5246
24 1 9 0.0000 3.50386 12.528501 -63.7225
25 1 5 0.0000 1.4728401 13.9874 -64.1444
26 1 9 0.0000 6.5197096 13.9307 -63.1037
27 1 11 0.0000 5.90337 17.324299 -64.857
28 1 9 0.0000 7.9631 12.8436 -65.760796
29 1 6 0.0000 9.3567505 10.228 -65.3851
30 1 1 1.0000 11.1317005 8.8413105 -64.5235
31 1 12 0.0000 6.8891296 13.9463 -68.7853
32 1 13 0.0000 8.893169 14.2725 -71.0857
33 1 7 0.0000 3.8547301 14.418699 -68.6262
34 1 12 0.0000 0.845335 12.4272 -68.2211
35 1 11 0.0000 -1.4262301 15.7965 -68.8348
36 1 12 0.0000 -0.126286 12.0982 -71.704
37 1 13 0.0000 -1.0268999 15.3995 -71.6328
38 1 2 0.0000 -0.17613201 9.1949 -71.7311
39 1 14 0.0000 2.04851 7.7117596 -72.663895
40 1 15 0.0000 3.64503 5.75667 -72.4495
41 1 15 0.0000 4.19035 7.86304 -74.1208
42 1 2 0.0000 -3.04879 8.04574 -71.3045
43 1 16 0.0000 -4.69297 8.128201 -73.344
44 1 2 0.0000 -4.55218 7.19646 -68.2304
45 1 5 0.0000 -3.26047 5.0625095 -67.8238
46 1 2 0.0000 -6.6231604 6.32174 -65.2365
47 1 3 -1.0000 -5.80593 9.90568 -62.8495
48 1 12 0.0000 -10.984 4.23446 -64.2321
49 1 6 0.0000 -11.996 2.44209 -61.2855
50 1 1 1.0000 -11.3372 1.85459 -58.5022
51 1 12 0.0000 -12.8795 5.38209 -66.600296
52 1 2 0.0000 -9.51737 7.57268 -67.4397
53 1 2 0.0000 -9.84559 10.2905 -65.732796
54 1 6 0.0000 -10.7383 9.313251 -62.889297
55 1 1 1.0000 -9.22993 7.5683203 -61.101498
56 1 2 0.0000 -9.22608 12.509201 -69.2345
57 1 14 0.0000 -10.029301 10.4102 -71.5215
58 1 15 0.0000 -9.59948 8.05033 -72.1806
59 1 15 0.0000 -11.8962 8.42903 -71.8985
60 1 2 0.0000 -5.48349 12.6714 -71.6543
61 1 6 0.0000 -4.04706 12.196501 -69.2024
62 1 1 1.0000 -3.9538 11.9906 -66.6193
63 1 2 0.0000 -3.6083498 12.5696 -75.5417
64 1 16 0.0000 -4.3037 14.9526005 -76.4789
65 1 2 0.0000 -1.3949599 10.4068 -76.5545
66 1 11 0.0000 -0.18102899 7.06177 -76.6585
67 1 6 0.0000 1.23608 6.32453 -79.1366
68 1 2 0.0000 -1.30484 4.65734 -74.8668
69 1 2 0.0000 -4.50593 4.23619 -76.5609
70 1 2 0.0000 -1.7035601 3.0863 -72.656006
71 1 8 0.0000 0.014895099 2.36533 -70.0168
72 1 12 0.0000 -6.02522 2.5618198 -74.3824
73 1 14 0.0000 -6.98313 3.915 -71.7282
74 1 15 0.0000 -9.58824 3.81108 -70.6313
75 1 15 0.0000 -7.37843 3.21712 -68.9322
76 1 12 0.0000 -7.53993 -1.4175301 -73.5192
77 1 2 0.0000 -5.37306 -2.3198 -71.3621
78 1 8 0.0000 -3.97122 -0.616679 -68.6048
79 1 12 0.0000 -5.90251 -5.1093 -70.2789
80 1 10 0.0000 -5.3499503 -6.20117 -67.4538
81 1 10 0.0000 -4.17971 -5.2564597 -65.0922
82 1 10 0.0000 -6.10003 -6.7671604 -64.969604
83 1 12 0.0000 -5.22636 -7.96489 -72.7381
84 1 2 0.0000 -5.12414 -6.93219 -77.0306
85 1 7 0.0000 -3.77393 -4.17811 -75.6373
86 1 1 1.0000 -3.09266 -1.2616199 -75.4991
87 1 2 0.0000 -3.15514 -7.97255 -79.0797
88 1 6 0.0000 -0.538907 -8.97649 -80.294304
89 1 1 1.0000 0.083822004 -11.589499 -80.2529
90 1 12 0.0000 -1.84094 -4.0091 -79.9214
91 1 16 0.0000 0.292999 -3.80836 -78.5716
92 1 12 0.0000 -5.18324 -3.38344 -81.1281
93 1 2 0.0000 -6.3919697 -0.395979 -79.0374
94 1 11 0.0000 -8.63208 -3.6271598 -77.701706
95 1 11 0.0000 -8.28435 1.40733 -79.0347
96 1 7 0.0000 -10.3509 4.23711 -76.3285
97 1 6 0.0000 -12.033401 2.3728302 -74.7482
98 1 12 0.0000 -8.56964 6.8143997 -77.1728
99 1 2 0.0000 -8.182529 5.64169 -80.7648
100 1 10 0.0000 -7.5318403 7.79331 -82.7671
101 1 10 0.0000 -5.67631 7.7893105 -84.9199
102 1 10 0.0000 -7.03955 10.068399 -84.1761
103 1 2 0.0000 -4.70018 3.6005802 -82.3095
104 1 16 0.0000 -5.43594 1.9433799 -83.750496
105 1 2 0.0000 -1.8015399 5.84609 -82.6156
106 1 14 0.0000 -2.7012599 8.55006 -81.477005
107 1 14 0.0000 -4.61705 8.93268 -79.5881
108 1 15 0.0000 -3.73114 11.157499 -80.930405
109 1 2 0.0000 -1.14951 5.1971397 -85.5272
110 1 16 0.0000 -2.16723 5.8068 -87.874695
111 1 4 0.0000 1.44076 3.24484 -85.747604
112 1 3 -1.0000 2.39506 1.29288 -88.0544
113 1 7 0.0000 2.4935 2.49804 -82.9161
114 1 12 0.0000 -0.289862 0.80485904 -81.8309
115 1 2 0.0000 -0.887861 1.65972 -79.1603
116 1 12 0.0000 -0.243863 -1.70384 -84.0159
117 1 6 0.0000 -2.23501 -1.14014 -86.4973
118 1 1 1.0000 -2.13175 0.652516 -88.4381
119 1 9 0.0000 2.6064 -2.9397898 -83.265396
120 1 2 0.0000 4.07228 -3.4038498 -86.1508
121 1 2 0.0000 4.6279 -5.11263 -81.384094
122 1 6 0.0000 8.23768 -4.62189 -80.83861
123 1 1 1.0000 10.877399 -4.92596 -78.836
124 1 2 0.0000 4.27601 -7.52145 -79.7902
125 1 2 0.0000 2.4990602 -7.77653 -76.8669
126 1 8 0.0000 2.59889 -11.083401 -76.3552
127 1 2 0.0000 -0.44594002 -8.07752 -74.1373
128 1 16 0.0000 -1.27068 -10.1746 -74.9351
129 1 2 0.0000 -1.02581 -7.98007 -69.9002
130 1 14 0.0000 -0.886535 -4.79163 -70.3482
131 1 17 0.0000 -0.080716394 -2.7317 -71.6073
132 1 10 0.0000 0.425874 -4.92749 -72.8407
133 1 10 0.0000 1.06032 -2.6736302 -73.8244
134 1 2 0.0000 0.296024 -8.828489 -66.7833
135 1 6 0.0000 2.81765 -10.591001 -67.6437
136 1 1 1.0000 4.31734 -11.6626 -65.1808
137 1 4 0.0000 2.48126 -6.30462 -66.1783
138 1 3 -1.0000 5.08815 -7.4685 -63.1109
139 1 4 0.0000 5.1315303 -7.50516 -67.6118
140 1 3 -1.0000 6.40378 -7.9588404 -63.4487
141 1 4 0.0000 4.65267 -6.12673 -70.6393
142 1 16 0.0000 4.63471 -8.27172 -72.164696
143 1 12 0.0000 4.6201 -3.0880098 -69.3704
144 1 8 0.0000 3.59995 -0.21270299 -70.1169
145 1 9 0.0000 7.6542096 -3.08631 -68.5846
146 1 13 0.0000 10.2631 -6.0781198 -66.4747
147 1 9 0.0000 8.93871 -3.09258 -71.7839
148 1 3 -1.0000 11.893701 -4.15203 -74.3125
149 1 9 0.0000 7.44633 -0.49456298 -72.6883
150 1 14 0.0000 5.16098 0.950657 -74.1755
151 1 14 0.0000 4.6291 2.89242 -75.8926
152 1 15 0.0000 2.75393 1.47822 -74.757095
153 1 12 0.0000 9.430429 1.5072 -70.9722
154 1 8 0.0000 6.83542 3.19451 -69.924
155 1 12 0.0000 12.301101 0.78358597 -72.2127
156 1 3 -1.0000 16.3221 -0.051325403 -70.8895
157 1 2 0.0000 13.0715 3.0454001 -74.0451
158 1 2 0.0000 16.3802 3.6043098 -73.9309
159 1 7 0.0000 9.9826 3.54547 -75.3945
160 1 6 0.0000 8.457581 5.39546 -74.1624
161 1 12 0.0000 11.1417 3.37124 -78.596504
162 1 6 0.0000 12.852401 6.2588797 -79.1575
163 1 1 1.0000 11.6438 8.56187 -80.593994
164 1 12 0.0000 11.3869 -0.0184303 -78.3684
165 1 6 0.0000 14.7095 -0.39579803 -77.7909
166 1 1 1.0000 15.7325 -1.10488 -75.1324
167 1 12 0.0000 8.231441 -0.722929 -77.7787
168 1 14 0.0000 6.99079 -3.14679 -76.3582
169 1 14 0.0000 4.8196898 -3.6243799 -75.2064
170 1 15 0.0000 6.88836 -5.25537 -75.4002
171 1 2 0.0000 6.26586 1.23983 -79.8647
172 1 8 0.0000 3.96701 -1.00502 -78.9717
173 1 7 0.0000 6.69596 0.00437522 -82.98041
174 1 6 0.0000 8.57008 -0.732902 -85.205
175 1 12 0.0000 9.07015 3.6579702 -83.0059
176 1 2 0.0000 6.3371 4.39808 -80.0536
177 1 16 0.0000 7.30022 6.4440203 -78.8424
178 1 2 0.0000 4.91609 6.6681404 -83.431305
179 1 6 0.0000 6.8370495 5.0182004 -85.3149
180 1 1 1.0000 6.28011 3.2711198 -87.3242
181 1 2 0.0000 2.82022 8.94577 -83.300896
182 1 13 0.0000 2.13994 8.30927 -87.2789
183 1 2 0.0000 1.74143 10.9521 -80.926506
184 1 8 0.0000 1.3746201 14.3137 -80.6136
185 1 2 0.0000 4.26293 11.2887 -77.7715
186 1 10 0.0000 3.1290798 13.7193 -76.2703
187 1 10 0.0000 4.06362 15.717699 -75.1331
188 1 10 0.0000 1.39643 15.581501 -76.233
189 1 11 0.0000 7.64134 10.4363 -76.6965
190 1 2 0.0000 9.5165 10.1397 -73.8595
191 1 2 0.0000 10.8734 7.69896 -70.5504
192 1 8 0.0000 12.7636 10.1495 -70.1649
193 1 2 0.0000 11.8766 4.79866 -68.3582
194 1 6 0.0000 14.582601 4.92489 -69.5075
195 1 1 1.0000 16.713999 3.70373 -68.593
196 1 2 0.0000 15.6185 1.14033 -65.6411
197 1 6 0.0000 17.9296 2.67328 -63.888897
198 1 1 1.0000 17.601799 4.1490097 -61.4001
199 1 4 0.0000 14.6593 -1.05064 -63.7062
200 1 6 0.0000 11.6448 -3.4921699 -62.3959
201 1 1 1.0000 9.06967 -4.45181 -61.725002
202 1 4 0.0000 12.9207 0.994066 -61.507202
203 1 16 0.0000 11.9277 0.20231901 -59.110497
204 1 4 0.0000 12.0185995 3.12922 -63.9015
205 1 3 -1.0000 14.6649 6.10636 -64.3378
206 1 4 0.0000 10.2754 1.0871301 -65.660904
207 1 7 0.0000 11.774599 -1.23111 -67.4984
208 1 1 1.0000 13.2333 -3.35576 -69.9295
209 1 7 0.0000 8.72691 -0.0308975 -63.4124
210 1 3 -1.0000 6.75961 -1.2959801 -59.319603
211 1 7 0.0000 7.16857 2.24093 -62.3315
212 1 3 -1.0000 6.4766197 -0.919236 -59.7649
213 1 7 0.0000 5.7041197 2.79434 -65.0829
214 1 8 0.0000 7.31973 5.71609 -65.6118
215 1 7 0.0000 3.99742 0.0859733 -65.021904
216 1 8 0.0000 5.20683 -2.63302 -64.5877
217 1 13 0.0000 2.6439 0.83915 -62.388603
218 1 7 0.0000 0.797956 2.98136 -63.7149
219 1 14 0.0000 1.2161599 5.78465 -65.3312
220 1 14 0.0000 2.19824 6.0244102 -67.9276
221 1 15 0.0000 0.551954 7.68719 -66.9198
222 1 7 0.0000 -0.637877 0.537611 -65.7642
223 1 8 0.0000 0.639786 -2.12756 -67.0363
224 1 7 0.0000 -1.83831 -1.0864199 -63.2197
225 1 6 0.0000 0.613433 -3.26406 -62.2604
226 1 1 1.0000 3.02941 -3.81769 -60.7205
227 1 9 0.0000 -3.37585 1.3347199 -61.7877
228 1 6 0.0000 -2.9816499 1.5704501 -58.839
229 1 1 1.0000 -3.9680002 1.90127 -56.2361
230 1 7 0.0000 -5.2555504 2.07891 -64.239105
231 1 9 0.0000 -7.17023 -0.660426 -64.369995
232 1 16 0.0000 -8.30184 -1.17155 -66.7711
233 1 9 0.0000 -8.06706 -0.480209 -61.448303
234 1 2 0.0000 -6.98468 -2.95799 -59.5414
235 1 3 -1.0000 -7.44709 2.94955 -60.468704
236 1 3 -1.0000 -7.94527 4.81565 -57.3843

Bonds

1 1 1 2
2 1 31 33
3 1 33 34
4 1 34 36
5 1 36 38
6 1 38 42
7 1 42 44
8 1 44 46
9 1 46 48
10 1 48 51
11 1 51 52
12 1 52 53
13 1 53 56
14 1 56 60
15 1 60 63
16 1 63 65
17 1 65 66
18 1 66 68
19 1 68 70
20 1 70 72
21 1 72 76
22 1 76 77
23 1 77 79
24 1 79 83
25 1 83 84
26 1 84 87
27 1 87 90
28 1 90 92
29 1 92 93
30 1 93 95
31 1 95 96
32 1 96 98
33 1 98 99
34 1 99 103
35 1 103 105
36 1 105 109
37 1 121 124
38 1 124 125
39 1 125 127
40 1 127 129
41 1 129 134
42 1 153 155
43 1 155 157
44 1 171 173
45 1 173 175
46 1 175 176
47 1 176 178
48 1 178 181
49 1 181 183
50 1 183 185
51 1 185 189
52 1 189 190
53 1 190 191
54 1 191 193
55 1 193 196
56 2 2 3
57 3 6 7
58 4 8 9
59 5 9 10
60 4 12 13
61 5 13 14
62 4 15 16
63 5 16 17
64 6 20 21
65 3 26 27
66 4 28 29
67 5 29 30
68 6 31 32
69 3 34 35
70 6 36 37
71 2 38 39
72 3 46 47
73 4 48 49
74 5 49 50
75 4 53 54
76 5 54 55
77 2 56 57
78 4 60 61
79 5 61 62
80 7 66 67
81 8 68 69
82 9 70 71
83 2 72 73
84 9 77 78
85 6 79 80
86 4 84 85
87 10 85 86
88 4 87 88
89 5 88 89
90 3 93 94
91 7 96 97
92 6 99 100
93 8 105 106
94 2 111 112
95 8 114 115
96 4 116 117
97 5 117 118
98 8 119 120
99 4 121 122
100 5 122 123
101 11 129 130
102 4 134 135
103 5 135 136
104 3 137 138
105 3 139 140
106 9 143 144
107 12 145 146
108 3 147 148
109 8 149 150
110 9 153 154
111 3 155 156
112 8 157 158
113 7 159 160
114 4 161 162
115 5 162 163
116 4 164 165
117 5 165 166
118 8 167 168
119 7 173 174
120 4 178 179
121 5 179 180
122 12 181 182
123 6 185 186
124 4 193 194
125 5 194 195
126 4 196 197
127 5 197 198
128 4 199 200
129 5 200 201
130 3 204 205
131 4 206 207
132 10 207 208
133 3 209 210
134 2 211 212
135 9 213 214
136 8 218 219
137 9 222 223
138 4 224 225
139 5 225 226
140 4 227 228
141 5 228 229
142 8 233 234
143 3 235 236
144 13 2 4
145 14 4 6
146 14 6 8
147 14 8 11
148 14 11 12
149 14 12 15
150 14 15 18
151 14 18 20
152 14 20 24
153 14 24 26
154 14 26 28
155 13 28 31
156 13 109 111
157 14 111 113
158 14 113 114
159 14 114 116
160 14 116 119
161 13 119 121
162 13 134 137
163 14 137 139
164 14 139 141
165 14 141 143
166 14 143 145
167 14 145 147
168 14 147 149
169 13 149 153
170 13 157 159
171 14 159 161
172 14 161 164
173 14 164 167
174 13 167 171
175 13 196 199
176 14 199 202
177 14 202 204
178 14 204 206
179 14 206 209
180 14 209 211
181 14 211 213
182 14 213 215
183 14 215 217
184 14 217 218
185 14 218 222
186 14 222 224
187 14 224 227
188 14 227 230
189 14 230 231
190 14 231 233
191 13 233 235
192 15 4 5
193 14 18 19
194 16 21 22
195 16 21 23
196 16 22 23
197 15 24 25
198 16 39 40
199 16 39 41
200 16 40 41
201 17 42 43
202 15 44 45
203 16 57 58
204 16 57 59
205 16 58 59
206 17 63 64
207 16 73 74
208 16 73 75
209 16 74 75
210 16 80 81
211 16 80 82
212 16 81 82
213 17 90 91
214 16 100 101
215 16 100 102
216 16 101 102
217 17 103 104
218 16 106 107
219 16 106 108
220 16 107 108
221 17 109 110
222 14 125 126
223 17 127 128
224 16 130 131
225 16 130 132
226 16 131 132
227 16 131 133
228 16 132 133
229 17 141 142
230 16 150 151
231 16 150 152
232 16 151 152
233 16 168 169
234 16 168 170
235 16 169 170
236 14 171 172
237 17 176 177
238 14 183 184
239 16 186 187
240 16 186 188
241 16 187 188
242 14 191 192
243 17 202 203
244 14 215 216
245 16 219 220
246 16 219 221
247 16 220 221
248 17 231 232

Angles

1 1 1 2 4
2 1 2 4 6
3 2 4 6 8
4 2 6 8 11
5 2 8 11 12
6 2 11 12 15
7 2 12 15 18
8 2 15 18 20
9 2 18 20 24
10 2 20 24 26
11 2 24 26 28
12 3 26 28 31
13 3 28 31 33
14 3 31 33 34
15 3 33 34 36
16 3 34 36 38
17 3 36 38 42
18 1 38 42 44
19 1 42 44 46
20 3 44 46 48
21 3 46 48 51
22 3 48 51 52
23 3 51 52 53
24 1 52 53 56
25 1 53 56 60
26 1 56 60 63
27 1 60 63 65
28 4 63 65 66
29 1 65 66 68
30 1 66 68 70
31 3 68 70 72
32 3 70 72 76
33 3 72 76 77
34 3 76 77 79
35 3 77 79 83
36 3 79 83 84
37 3 83 84 87
38 3 84 87 90
39 3 87 90 92
40 3 90 92 93
41 3 92 93 95
42 1 93 95 96
43 3 95 96 98
44 3 96 98 99
45 3 98 99 103
46 1 99 103 105
47 1 103 105 109
48 1 105 109 111
49 1 109 111 113
50 2 111 113 114
51 2 113 114 116
52 2 114 116 119
53 1 116 119 121
54 1 119 121 124
55 1 121 124 125
56 1 124 125 127
57 1 125 127 129
58 1 127 129 134
59 1 129 134 137
60 4 134 137 139
61 2 137 139 141
62 2 139 141 143
63 2 141 143 145
64 2 143 145 147
65 2 145 147 149
66 3 147 149 153
67 3 149 153 155
68 3 153 155 157
69 3 155 157 159
70 5 157 159 161
71 5 159 161 164
72 2 161 164 167
73 4 164 167 171
74 4 167 171 173
75 3 171 173 175
76 3 173 175 176
77 3 175 176 178
78 1 176 178 181
79 1 178 181 183
80 1 181 183 185
81 1 183 185 189
82 1 185 189 190
83 1 189 190 191
84 1 190 191 193
85 1 191 193 196
86 1 193 196 199
87 4 196 199 202
88 2 199 202 204
89 2 202 204 206
90 2 204 206 209
91 2 206 209 211
92 2 209 211 213
93 2 211 213 215
94 2 213 215 217
95 2 215 217 218
96 2 217 218 222
97 2 218 222 224
98 2 222 224 227
99 2 224 227 230
100 2 227 230 231
101 2 230 231 233
102 1 231 233 235
103 6 1 2 3
104 6 2 4 5
105 6 4 6 7
106 6 6 8 9
107 6 11 12 13
108 6 12 15 16
109 6 15 18 19
110 6 18 20 21
111 6 20 24 25
112 6 24 26 27
113 6 26 28 29
114 6 28 31 32
115 6 33 34 35
116 6 34 36 37
117 6 36 38 39
118 6 38 42 43
119 6 42 44 45
120 6 44 46 47
121 6 46 48 49
122 6 52 53 54
123 6 53 56 57
124 6 56 60 61
125 6 60 63 64
126 6 65 66 67
127 6 66 68 69
128 6 68 70 71
129 6 70 72 73
130 6 76 77 78
131 6 77 79 80
132 6 83 84 85
133 6 84 87 88
134 6 87 90 91
135 6 92 93 94
136 6 95 96 97
137 6 98 99 100
138 6 99 103 104
139 6 103 105 106
140 6 105 109 110
141 6 109 111 112
142 6 113 114 115
143 6 114 116 117
144 6 116 119 120
145 6 119 121 122
146 6 124 125 126
147 6 125 127 128
148 6 127 129 130
149 6 129 134 135
150 6 134 137 138
151 6 137 139 140
152 6 139 141 142
153 6 141 143 144
154 6 143 145 146
155 6 145 147 148
156 6 147 149 150
157 6 149 153 154
158 6 153 155 156
159 6 155 157 158
160 6 157 159 160
161 6 159 161 162
162 6 161 164 165
163 6 164 167 168
164 6 167 171 172
165 6 171 173 174
166 6 175 176 177
167 6 176 178 179
168 6 178 181 182
169 6 181 183 184
170 6 183 185 186
171 6 190 191 192
172 6 191 193 194
173 6 193 196 197
174 6 196 199 200
175 6 199 202 203
176 6 202 204 205
177 6 204 206 207
178 6 206 209 210
179 6 209 211 212
180 6 211 213 214
181 6 213 215 216
182 6 217 218 219
183 6 218 222 223
184 6 222 224 225
185 6 224 227 228
186 6 230 231 232
187 6 231 233 234
188 6 233 235 236
189 7 8 9 10
190 7 12 13 14
191 7 15 16 17
192 8 20 21 22
193 8 20 21 23
194 7 28 29 30
195 8 38 39 40
196 8 38 39 41
197 7 48 49 50
198 7 53 54 55
199 8 56 57 58
200 8 56 57 59
201 7 60 61 62
202 8 72 73 74
203 8 72 73 75
204 8 79 80 81
205 8 79 80 82
206 7 84 85 86
207 7 87 88 89
208 8 99 100 101
209 8 99 100 102
210 8 105 106 107
211 8 105 106 108
212 7 116 117 118
213 7 121 122 123
214 9 129 130 131
215 10 129 130 132
216 7 134 135 136
217 8 149 150 151
218 8 149 150 152
219 7 161 162 163
220 7 164 165 166
221 8 167 168 169
222 8 167 168 170
223 7 178 179 180
224 8 185 186 187
225 8 185 186 188
226 7 193 194 195
227 7 196 197 198
228 7 199 200 201
229 7 206 207 208
230 8 218 219 220
231 8 218 219 221
232 7 224 225 226
233 7 227 228 229

Dihedrals

1 1 4 6 8 11
2 1 6 8 11 12
3 1 8 11 12 15
4 1 11 12 15 18
5 1 12 15 18 20
6 1 15 18 20 24
7 1 18 20 24 26
8 1 20 24 26 28
9 1 111 113 114 116
10 1 113 114 116 119
11 1 137 139 141 143
12 1 139 141 143 145
13 1 141 143 145 147
14 1 143 145 147 149
15 1 159 161 164 167
16 1 199 202 204 206
17 1 202 204 206 209
18 1 204 206 209 211
19 1 206 209 211 213
20 1 209 211 213 215
21 1 211 213 215 217
22 1 213 215 217 218
23 1 215 217 218 222
24 1 217 218 222 224
25 1 218 222 224 227
26 1 222 224 227 230
27 1 224 227 230 231
28 1 227 230 231 233

Impropers

1 1 20 22 23 21
2 1 38 40 41 39
3 1 56 58 59 57
4 1 72 74 75 73
5 1 79 81 82 80
6 1 99 101 102 100
7 1 105 107 108 106
8 1 129 131 132 130
9 2 130 131 133 132
10 1 149 151 152 150
11 1 167 169 170 168
12 1 185 187 188 186
13 1 218 220 221 219

