comment

236 atoms
248 bonds
233 angles
28 dihedrals
13 impropers

17 atom types
17 bond types
10 angle types
1 dihedral types
2 improper types

-40.5 40.5 xlo xhi
-40.5 40.5 ylo yhi
-190.0 190.0 zlo zhi

Masses

1 72.0
2 72.0
3 72.0
4 72.0
5 72.0
6 72.0
7 72.0
8 72.0
9 72.0
10 45.0
11 72.0
12 72.0
13 72.0
14 45.0
15 45.0
16 72.0
17 45.0

PairIJ Coeffs

1 1 1.19503 4.699999999999999
1 2 1.3384336 4.699999999999999
1 3 1.3384336 4.699999999999999
1 4 0.956024 4.699999999999999
1 5 0.478012 4.699999999999999
1 6 0.5497137999999999 4.699999999999999
1 7 0.836521 4.699999999999999
1 8 0.478012 4.699999999999999
1 9 1.19503 4.699999999999999
1 10 0.7409186 4.699999999999999
1 11 1.3384336 4.699999999999999
1 12 1.19503 4.699999999999999
1 13 0.7409186 4.699999999999999
1 14 0.6453162 4.699999999999999
1 15 1.19503 4.699999999999999
1 16 1.19503 4.699999999999999
1 17 0.956024 4.699999999999999
2 2 1.3384336 4.699999999999999
2 3 1.3384336 4.699999999999999
2 4 1.19503 4.699999999999999
2 5 0.5497137999999999 4.699999999999999
2 6 0.6453162 4.699999999999999
2 7 0.836521 4.699999999999999
2 8 0.478012 4.699999999999999
2 9 1.19503 4.699999999999999
2 10 0.7409186 4.699999999999999
2 11 1.3384336 4.699999999999999
2 12 1.19503 4.699999999999999
2 13 0.7409186 4.699999999999999
2 14 0.6453162 4.699999999999999
2 15 1.3384336 4.699999999999999
2 16 1.3384336 4.699999999999999
2 17 1.19503 4.699999999999999
3 3 1.19503 4.699999999999999
3 4 1.19503 4.699999999999999
3 5 0.478012 4.699999999999999
3 6 0.5497137999999999 4.699999999999999
3 7 0.836521 4.699999999999999
3 8 0.478012 4.699999999999999
3 9 0.956024 4.699999999999999
3 10 0.7409186 4.699999999999999
3 11 1.3384336 4.699999999999999
3 12 1.19503 4.699999999999999
3 13 0.7409186 4.699999999999999
3 14 0.6453162 4.699999999999999
3 15 1.19503 4.699999999999999
3 16 1.19503 4.699999999999999
3 17 1.19503 4.699999999999999
4 4 0.956024 4.699999999999999
4 5 0.6453162 4.699999999999999
4 6 0.6453162 4.699999999999999
4 7 0.836521 4.699999999999999
4 8 0.6453162 4.699999999999999
4 9 1.075527 4.699999999999999
4 10 0.836521 4.699999999999999
4 11 0.956024 4.699999999999999
4 12 1.075527 4.699999999999999
4 13 0.836521 4.699999999999999
4 14 0.7409186 4.699999999999999
4 15 1.075527 4.699999999999999
4 16 1.075527 4.699999999999999
4 17 0.956024 4.699999999999999
5 5 0.836521 4.699999999999999
5 6 0.836521 4.699999999999999
5 7 0.7409186 4.699999999999999
5 8 0.836521 4.699999999999999
5 9 0.6453162 4.699999999999999
5 10 0.7409186 4.699999999999999
5 11 0.5497137999999999 4.699999999999999
5 12 0.6453162 4.699999999999999
5 13 0.7409186 4.699999999999999
5 14 0.7409186 4.699999999999999
5 15 0.7409186 4.699999999999999
5 16 0.7409186 4.699999999999999
5 17 0.6453162 4.699999999999999
6 6 0.836521 4.699999999999999
6 7 0.836521 4.699999999999999
6 8 0.836521 4.699999999999999
6 9 0.6453162 4.699999999999999
6 10 0.836521 4.699999999999999
6 11 0.6453162 4.699999999999999
6 12 0.6453162 4.699999999999999
6 13 0.836521 4.699999999999999
6 14 0.836521 4.699999999999999
6 15 0.836521 4.699999999999999
6 16 0.836521 4.699999999999999
6 17 0.6453162 4.699999999999999
7 7 0.836521 4.699999999999999
7 8 0.6453162 4.699999999999999
7 9 0.836521 4.699999999999999
7 10 0.836521 4.699999999999999
7 11 0.836521 4.699999999999999
7 12 0.836521 4.699999999999999
7 13 0.836521 4.699999999999999
7 14 0.836521 4.699999999999999
7 15 0.956024 4.699999999999999
7 16 0.956024 4.699999999999999
7 17 0.836521 4.699999999999999
8 8 0.836521 4.699999999999999
8 9 0.6453162 4.699999999999999
8 10 0.7409186 4.699999999999999
8 11 0.478012 4.699999999999999
8 12 0.6453162 4.699999999999999
8 13 0.7409186 4.699999999999999
8 14 0.7409186 4.699999999999999
8 15 0.6453162 4.699999999999999
8 16 0.6453162 4.699999999999999
8 17 0.6453162 4.699999999999999
9 9 0.956024 4.699999999999999
9 10 0.836521 4.699999999999999
9 11 0.956024 4.699999999999999
9 12 1.075527 4.699999999999999
9 13 0.836521 4.699999999999999
9 14 0.7409186 4.699999999999999
9 15 1.075527 4.699999999999999
9 16 1.075527 4.699999999999999
9 17 1.075527 4.699999999999999
10 10 0.62739075 4.3
10 11 0.7409186 4.699999999999999
10 12 0.836521 4.699999999999999
10 13 0.836521 4.699999999999999
10 14 0.62739075 4.3
10 15 0.62739075 4.3
10 16 0.836521 4.699999999999999
10 17 0.62739075 4.3
11 11 1.19503 4.699999999999999
11 12 0.956024 4.699999999999999
11 13 0.7409186 4.699999999999999
11 14 0.6453162 4.699999999999999
11 15 1.075527 4.699999999999999
11 16 1.075527 4.699999999999999
11 17 0.956024 4.699999999999999
12 12 1.075527 4.699999999999999
12 13 0.836521 4.699999999999999
12 14 0.7409186 4.699999999999999
12 15 1.075527 4.699999999999999
12 16 1.075527 4.699999999999999
12 17 1.075527 4.699999999999999
13 13 0.836521 4.699999999999999
13 14 0.836521 4.699999999999999
13 15 0.836521 4.699999999999999
13 16 0.836521 4.699999999999999
13 17 0.836521 4.699999999999999
14 14 0.62739075 4.3
14 15 0.62739075 4.3
14 16 0.836521 4.699999999999999
14 17 0.5556889500000001 4.3
15 15 0.80664525 4.3
15 16 1.075527 4.699999999999999
15 17 0.80664525 4.3
16 16 1.075527 4.699999999999999
16 17 1.075527 4.699999999999999
17 17 0.7170179999999999 4.3

Bond Coeffs

1 1.4937875 3.5
2 8.962725 3.2
3 5.97515 4.0
4 5.97515 3.3000000000000003
5 5.97515 2.8000000000000003
6 8.962725 3.1
7 8.962725 3.0
8 5.97515 3.2
9 8.962725 3.3000000000000003
10 5.97515 3.4000000000000004
11 5.97515 3.0
12 2.987575 4.0
13 11.9503 3.3000000000000003
14 11.9503 3.1
15 11.9503 2.6500000000000004
16 11.9503 2.7
17 11.9503 2.6

Angle Coeffs

1 2.39006 127
2 83.6521 96
3 2.39006 100
4 2.39006 130
5 11.9503 98
6 2.987575 100
7 2.987575 180
8 5.97515 150
9 5.97515 210
10 5.97515 90

Dihedral Coeffs

1 95.6024 1 -120 0

Improper Coeffs

1 5.97515 0
2 23.9006 0

Atoms

1 1 1 1.0000 1.2549999 -0.027 -48.818
2 1 2 0.0000 0.194891 0.0308881 -50.7206
3 1 3 -1.0000 -1.39916 -0.807613 -53.305
4 1 4 0.0000 2.0612 1.8921299 -54.173298
5 1 5 0.0000 3.08434 0.39773598 -55.8899
6 1 4 0.0000 2.04279 5.17951 -54.677002
7 1 3 -1.0000 -1.77108 6.2021203 -55.6922
8 1 4 0.0000 4.45848 5.69071 -56.236702
9 1 6 0.0000 6.90403 4.32972 -54.883198
10 1 1 1.0000 7.7632804 1.9361199 -56.4207
11 1 4 0.0000 3.6762402 4.51188 -59.2509
12 1 7 0.0000 1.69613 6.87021 -60.0407
13 1 6 0.0000 -1.5591 6.863 -60.994602
14 1 1 1.0000 -4.30667 6.1112795 -60.0392
15 1 7 0.0000 3.576 9.49551 -59.4291
16 1 6 0.0000 2.12223 10.457 -56.768097
17 1 1 1.0000 0.698926 9.98969 -54.9087
18 1 7 0.0000 6.2681003 9.12069 -61.367104
19 1 8 0.0000 7.73368 6.90413 -60.389297
20 1 9 0.0000 4.65415 9.64184 -64.1753
21 1 10 0.0000 5.26826 9.381579 -67.2021
22 1 10 0.0000 4.66029 9.49443 -70.0034
23 1 10 0.0000 7.2209 9.29432 -69.3239
24 1 9 0.0000 3.61095 12.787 -63.643097
25 1 5 0.0000 1.43081 13.6893 -63.2601
26 1 9 0.0000 6.34749 14.376101 -63.320198
27 1 11 0.0000 4.41111 17.2846 -65.6832
28 1 9 0.0000 7.9523897 13.491401 -66.1331
29 1 6 0.0000 9.69681 11.0431 -65.3864
30 1 1 1.0000 11.4336 9.08822 -65.364395
31 1 12 0.0000 7.08818 14.1789 -69.1046
32 1 13 0.0000 8.28965 13.979501 -72.0615
33 1 7 0.0000 3.70255 14.292801 -69.2439
34 1 12 0.0000 1.12549 12.631101 -67.8974
35 1 11 0.0000 -1.5779 15.8552 -67.912
36 1 12 0.0000 -0.496561 12.38 -70.989395
37 1 13 0.0000 -0.575308 15.4991 -71.1337
38 1 2 0.0000 -0.88132 9.09834 -70.492004
39 1 14 0.0000 1.42878 7.6327505 -72.188805
40 1 15 0.0000 3.15807 5.4447503 -72.3884
41 1 15 0.0000 3.03331 7.6947803 -73.9043
42 1 2 0.0000 -3.65096 7.69149 -70.369804
43 1 16 0.0000 -4.5791597 8.32032 -73.0075
44 1 2 0.0000 -4.38073 6.1466303 -67.449196
45 1 5 0.0000 -3.22925 4.02737 -67.3998
46 1 2 0.0000 -6.95339 6.58265 -65.2114
47 1 3 -1.0000 -5.50782 9.53162 -62.8749
48 1 12 0.0000 -10.376801 3.82337 -64.846504
49 1 6 0.0000 -11.647901 2.96767 -61.9668
50 1 1 1.0000 -11.925301 3.04032 -58.7697
51 1 12 0.0000 -12.5311 6.0883303 -66.7139
52 1 2 0.0000 -9.38662 8.03051 -67.1719
53 1 2 0.0000 -10.3444 10.8116 -66.423004
54 1 6 0.0000 -10.5515 10.0390005 -62.5767
55 1 1 1.0000 -9.37972 7.7195797 -61.016697
56 1 2 0.0000 -9.0463 12.7152 -70.186
57 1 14 0.0000 -10.5427 10.504399 -71.7961
58 1 15 0.0000 -9.14699 8.2359705 -72.225296
59 1 15 0.0000 -11.6298 7.89581 -72.2314
60 1 2 0.0000 -5.25505 13.358999 -71.2391
61 1 6 0.0000 -4.94399 12.143299 -68.2386
62 1 1 1.0000 -3.03015 11.034499 -66.406105
63 1 2 0.0000 -3.1061301 12.217799 -75.371
64 1 16 0.0000 -3.66074 14.5647 -76.6354
65 1 2 0.0000 -0.91871095 10.240999 -76.1832
66 1 11 0.0000 -0.285133 6.61479 -76.9633
67 1 6 0.0000 1.6575501 6.11649 -78.984695
68 1 2 0.0000 -1.8011799 4.76968 -74.896
69 1 2 0.0000 -4.39892 3.96586 -76.5241
70 1 2 0.0000 -2.05992 2.2806902 -72.5217
71 1 8 0.0000 0.0172504 2.16346 -70.1593
72 1 12 0.0000 -5.99266 2.42806 -73.9173
73 1 14 0.0000 -7.29341 3.78432 -71.3507
74 1 15 0.0000 -9.85035 3.94899 -70.3803
75 1 15 0.0000 -7.61864 2.94212 -69.057205
76 1 12 0.0000 -7.2989397 -1.18399 -73.0111
77 1 2 0.0000 -5.20922 -2.5374699 -70.679306
78 1 8 0.0000 -3.8347797 -1.0069 -68.414696
79 1 12 0.0000 -5.99577 -5.61898 -70.161804
80 1 10 0.0000 -4.79917 -6.09089 -67.2203
81 1 10 0.0000 -3.9389899 -5.6616 -64.9435
82 1 10 0.0000 -6.24738 -7.0178504 -65.0998
83 1 12 0.0000 -5.6767397 -7.7248197 -72.751
84 1 2 0.0000 -3.8900301 -6.39575 -76.088
85 1 7 0.0000 -4.39446 -3.96721 -75.288
86 1 1 1.0000 -4.1995296 -1.1642001 -76.8759
87 1 2 0.0000 -2.67208 -7.98402 -78.7676
88 1 6 0.0000 -1.07632 -9.47142 -80.4953
89 1 1 1.0000 0.571572 -11.404099 -81.8872
90 1 12 0.0000 -1.52156 -4.30208 -80.0803
91 1 16 0.0000 0.0803699 -3.91969 -78.4793
92 1 12 0.0000 -4.59915 -2.34096 -81.7257
93 1 2 0.0000 -7.80445 -0.915296 -80.815895
94 1 11 0.0000 -9.08348 -3.60151 -78.0509
95 1 11 0.0000 -8.79175 1.69582 -77.9983
96 1 7 0.0000 -10.6339 4.6187897 -75.6529
97 1 6 0.0000 -12.938 3.1805398 -74.7295
98 1 12 0.0000 -8.36858 6.6862397 -77.5181
99 1 2 0.0000 -7.84181 5.21343 -80.0893
100 1 10 0.0000 -7.42266 7.25195 -82.473
101 1 10 0.0000 -6.2093105 7.15337 -84.3972
102 1 10 0.0000 -6.97575 9.6321 -83.77969
103 1 2 0.0000 -4.58967 3.18009 -82.0919
104 1 16 0.0000 -5.6097403 2.43315 -84.246796
105 1 2 0.0000 -2.08329 5.5602503 -82.42171
106 1 14 0.0000 -3.1086998 7.9826403 -80.4955
107 1 14 0.0000 -5.20081 9.395639 -79.4468
108 1 15 0.0000 -3.47714 10.7368 -80.70911
109 1 2 0.0000 -1.27443 5.0770497 -85.509705
110 1 16 0.0000 -2.39343 5.9757204 -87.5829
111 1 4 0.0000 1.70197 3.58371 -85.206604
112 1 3 -1.0000 2.05443 1.8431801 -87.9126
113 1 7 0.0000 2.16383 2.4263802 -82.3623
114 1 12 0.0000 -0.35593 0.856454 -81.75279
115 1 2 0.0000 -0.118375 1.27086 -78.346
116 1 12 0.0000 -0.341932 -1.27072 -84.200294
117 1 6 0.0000 -2.27634 -0.976305 -86.6336
118 1 1 1.0000 -2.19385 1.01179 -88.6611
119 1 9 0.0000 2.48329 -2.70651 -83.577
120 1 2 0.0000 3.93042 -2.4310598 -86.4236
121 1 2 0.0000 4.73569 -4.95258 -81.973305
122 1 6 0.0000 8.036779 -5.47701 -81.0445
123 1 1 1.0000 10.382299 -5.45601 -79.4251
124 1 2 0.0000 3.6709201 -7.44748 -80.5585
125 1 2 0.0000 2.04476 -8.04508 -76.6358
126 1 8 0.0000 3.1907601 -10.7458 -76.4069
127 1 2 0.0000 0.189742 -8.73617 -73.3591
128 1 16 0.0000 -1.4392699 -10.812799 -74.3542
129 1 2 0.0000 -0.665244 -8.05083 -69.593704
130 1 14 0.0000 -0.90076995 -4.94836 -70.6105
131 1 17 0.0000 -0.35109597 -2.6946301 -72.0431
132 1 10 0.0000 0.262239 -4.99848 -73.1434
133 1 10 0.0000 0.44946903 -2.49118 -74.098
134 1 2 0.0000 0.298984 -8.0582 -66.5653
135 1 6 0.0000 2.56232 -10.6996 -67.1079
136 1 1 1.0000 4.55702 -11.8092 -64.9904
137 1 4 0.0000 2.62279 -6.27779 -65.6321
138 1 3 -1.0000 5.54493 -7.98055 -62.5984
139 1 4 0.0000 5.1928196 -7.5197296 -67.3458
140 1 3 -1.0000 6.4243197 -8.138531 -63.134098
141 1 4 0.0000 4.4969997 -6.32131 -70.4095
142 1 16 0.0000 4.9892197 -8.432409 -72.045204
143 1 12 0.0000 4.5651097 -3.30142 -69.7989
144 1 8 0.0000 4.01777 -0.151621 -69.9554
145 1 9 0.0000 7.45513 -3.03792 -68.5422
146 1 13 0.0000 10.3241005 -6.01363 -66.763
147 1 9 0.0000 8.976299 -3.51948 -71.486
148 1 3 -1.0000 11.5473995 -3.98695 -74.8908
149 1 9 0.0000 7.73685 -0.818781 -72.849495
150 1 14 0.0000 5.39932 0.64829105 -74.6416
151 1 14 0.0000 4.1503 2.84487 -76.0229
152 1 15 0.0000 2.91401 1.51526 -74.5032
153 1 12 0.0000 9.13036 1.76107 -71.4346
154 1 8 0.0000 7.3238997 3.04282 -69.5901
155 1 12 0.0000 12.964 1.05923 -72.4049
156 1 3 -1.0000 16.7309 0.114297 -71.576
157 1 2 0.0000 12.7719 3.7402298 -74.149796
158 1 2 0.0000 14.955601 5.36728 -74.8492
159 1 7 0.0000 9.70999 3.4229202 -75.4274
160 1 6 0.0000 8.24381 5.7892504 -74.076904
161 1 12 0.0000 10.7891 3.24469 -78.435104
162 1 6 0.0000 12.701799 6.18434 -79.3957
163 1 1 1.0000 11.5068 8.41433 -79.367
164 1 12 0.0000 11.571701 -0.11725701 -78.579704
165 1 6 0.0000 14.2535 -0.147419 -76.9618
166 1 1 1.0000 15.802899 -1.9286599 -75.618904
167 1 12 0.0000 8.72459 -0.881963 -78.1176
168 1 14 0.0000 6.20676 -3.15906 -76.8907
169 1 14 0.0000 4.18973 -4.17628 -75.172104
170 1 15 0.0000 6.43717 -5.54301 -76.0567
171 1 2 0.0000 6.5534596 -0.100104 -80.61
172 1 8 0.0000 3.90882 -1.03716 -79.308304
173 1 7 0.0000 7.52703 0.14852801 -83.8665
174 1 6 0.0000 9.57735 -1.88784 -84.497696
175 1 12 0.0000 8.40182 4.1138897 -82.9974
176 1 2 0.0000 6.6321898 4.45862 -80.52161
177 1 16 0.0000 6.6445303 6.02489 -78.7097
178 1 2 0.0000 4.51629 7.1998 -83.5343
179 1 6 0.0000 6.0134 5.44129 -85.7962
180 1 1 1.0000 6.36863 3.39164 -87.3291
181 1 2 0.0000 1.84452 9.03334 -83.7697
182 1 13 0.0000 2.31637 7.80443 -87.7686
183 1 2 0.0000 2.15537 11.280001 -80.8656
184 1 8 0.0000 0.14180599 13.5577 -80.1715
185 1 2 0.0000 3.95692 11.1897 -77.7324
186 1 10 0.0000 3.6036 13.7615 -76.5485
187 1 10 0.0000 3.9169402 14.9393 -74.0673
188 1 10 0.0000 1.5709101 15.3942 -75.1511
189 1 11 0.0000 7.3948503 10.7685 -76.845
190 1 2 0.0000 10.3813 9.822189 -74.7321
191 1 2 0.0000 11.1257 8.08971 -71.1528
192 1 8 0.0000 12.5968 10.155701 -69.7303
193 1 2 0.0000 11.9074 5.0580196 -69.295
194 1 6 0.0000 14.8465 4.6956596 -70.0046
195 1 1 1.0000 17.0194 4.24126 -69.133
196 1 2 0.0000 15.6185 0.998221 -65.8841
197 1 6 0.0000 17.9512 2.74401 -63.973297
198 1 1 1.0000 17.2697 4.34692 -61.6812
199 1 4 0.0000 14.4206 -1.19853 -63.731
200 1 6 0.0000 11.777101 -3.72433 -62.796303
201 1 1 1.0000 9.21663 -4.81812 -61.673397
202 1 4 0.0000 13.0942 0.920877 -61.6177
203 1 16 0.0000 12.2478 0.534678 -59.206398
204 1 4 0.0000 11.907701 3.12149 -63.920002
205 1 3 -1.0000 14.6693 5.88594 -65.199
206 1 4 0.0000 10.356999 1.31401 -65.6157
207 1 7 0.0000 11.7478 -0.896926 -67.9162
208 1 1 1.0000 13.6607 -3.01103 -69.7546
209 1 7 0.0000 8.58934 -0.0967798 -63.2284
210 1 3 -1.0000 7.1196003 -1.44247 -59.2934
211 1 7 0.0000 7.15107 2.4517 -62.1343
212 1 3 -1.0000 6.3349495 -0.769436 -59.6393
213 1 7 0.0000 5.64858 3.428 -64.9435
214 1 8 0.0000 7.7840605 5.71782 -65.5659
215 1 7 0.0000 3.9874 0.554219 -65.0255
216 1 8 0.0000 5.11335 -2.08222 -64.9542
217 1 13 0.0000 2.37447 1.31594 -62.1878
218 1 7 0.0000 0.333596 3.2750897 -63.3471
219 1 14 0.0000 1.3215 5.71428 -65.0439
220 1 14 0.0000 2.42483 6.1255503 -67.208
221 1 15 0.0000 0.82305795 8.07343 -66.079
222 1 7 0.0000 -1.01432 0.72585 -65.2124
223 1 8 0.0000 0.288023 -2.2113 -66.8311
224 1 7 0.0000 -1.74689 -1.1 -62.871597
225 1 6 0.0000 1.00065 -3.32653 -61.964104
226 1 1 1.0000 3.6711202 -4.16362 -61.122498
227 1 9 0.0000 -3.4188602 1.23278 -61.433502
228 1 6 0.0000 -2.55486 1.51596 -58.2034
229 1 1 1.0000 -4.547 2.0767 -56.1108
230 1 7 0.0000 -5.5465603 1.9817699 -63.642803
231 1 9 0.0000 -7.23243 -0.93083 -63.6944
232 1 16 0.0000 -8.06518 -1.51437 -66.0871
233 1 9 0.0000 -7.98775 -0.718152 -60.6053
234 1 2 0.0000 -6.02407 -3.2445202 -59.5082
235 1 3 -1.0000 -7.6184998 2.8780901 -60.1413
236 1 3 -1.0000 -7.88509 4.83329 -57.424103

Bonds

1 1 1 2
2 1 31 33
3 1 33 34
4 1 34 36
5 1 36 38
6 1 38 42
7 1 42 44
8 1 44 46
9 1 46 48
10 1 48 51
11 1 51 52
12 1 52 53
13 1 53 56
14 1 56 60
15 1 60 63
16 1 63 65
17 1 65 66
18 1 66 68
19 1 68 70
20 1 70 72
21 1 72 76
22 1 76 77
23 1 77 79
24 1 79 83
25 1 83 84
26 1 84 87
27 1 87 90
28 1 90 92
29 1 92 93
30 1 93 95
31 1 95 96
32 1 96 98
33 1 98 99
34 1 99 103
35 1 103 105
36 1 105 109
37 1 121 124
38 1 124 125
39 1 125 127
40 1 127 129
41 1 129 134
42 1 153 155
43 1 155 157
44 1 171 173
45 1 173 175
46 1 175 176
47 1 176 178
48 1 178 181
49 1 181 183
50 1 183 185
51 1 185 189
52 1 189 190
53 1 190 191
54 1 191 193
55 1 193 196
56 2 2 3
57 3 6 7
58 4 8 9
59 5 9 10
60 4 12 13
61 5 13 14
62 4 15 16
63 5 16 17
64 6 20 21
65 3 26 27
66 4 28 29
67 5 29 30
68 6 31 32
69 3 34 35
70 6 36 37
71 2 38 39
72 3 46 47
73 4 48 49
74 5 49 50
75 4 53 54
76 5 54 55
77 2 56 57
78 4 60 61
79 5 61 62
80 7 66 67
81 8 68 69
82 9 70 71
83 2 72 73
84 9 77 78
85 6 79 80
86 4 84 85
87 10 85 86
88 4 87 88
89 5 88 89
90 3 93 94
91 7 96 97
92 6 99 100
93 8 105 106
94 2 111 112
95 8 114 115
96 4 116 117
97 5 117 118
98 8 119 120
99 4 121 122
100 5 122 123
101 11 129 130
102 4 134 135
103 5 135 136
104 3 137 138
105 3 139 140
106 9 143 144
107 12 145 146
108 3 147 148
109 8 149 150
110 9 153 154
111 3 155 156
112 8 157 158
113 7 159 160
114 4 161 162
115 5 162 163
116 4 164 165
117 5 165 166
118 8 167 168
119 7 173 174
120 4 178 179
121 5 179 180
122 12 181 182
123 6 185 186
124 4 193 194
125 5 194 195
126 4 196 197
127 5 197 198
128 4 199 200
129 5 200 201
130 3 204 205
131 4 206 207
132 10 207 208
133 3 209 210
134 2 211 212
135 9 213 214
136 8 218 219
137 9 222 223
138 4 224 225
139 5 225 226
140 4 227 228
141 5 228 229
142 8 233 234
143 3 235 236
144 13 2 4
145 14 4 6
146 14 6 8
147 14 8 11
148 14 11 12
149 14 12 15
150 14 15 18
151 14 18 20
152 14 20 24
153 14 24 26
154 14 26 28
155 13 28 31
156 13 109 111
157 14 111 113
158 14 113 114
159 14 114 116
160 14 116 119
161 13 119 121
162 13 134 137
163 14 137 139
164 14 139 141
165 14 141 143
166 14 143 145
167 14 145 147
168 14 147 149
169 13 149 153
170 13 157 159
171 14 159 161
172 14 161 164
173 14 164 167
174 13 167 171
175 13 196 199
176 14 199 202
177 14 202 204
178 14 204 206
179 14 206 209
180 14 209 211
181 14 211 213
182 14 213 215
183 14 215 217
184 14 217 218
185 14 218 222
186 14 222 224
187 14 224 227
188 14 227 230
189 14 230 231
190 14 231 233
191 13 233 235
192 15 4 5
193 14 18 19
194 16 21 22
195 16 21 23
196 16 22 23
197 15 24 25
198 16 39 40
199 16 39 41
200 16 40 41
201 17 42 43
202 15 44 45
203 16 57 58
204 16 57 59
205 16 58 59
206 17 63 64
207 16 73 74
208 16 73 75
209 16 74 75
210 16 80 81
211 16 80 82
212 16 81 82
213 17 90 91
214 16 100 101
215 16 100 102
216 16 101 102
217 17 103 104
218 16 106 107
219 16 106 108
220 16 107 108
221 17 109 110
222 14 125 126
223 17 127 128
224 16 130 131
225 16 130 132
226 16 131 132
227 16 131 133
228 16 132 133
229 17 141 142
230 16 150 151
231 16 150 152
232 16 151 152
233 16 168 169
234 16 168 170
235 16 169 170
236 14 171 172
237 17 176 177
238 14 183 184
239 16 186 187
240 16 186 188
241 16 187 188
242 14 191 192
243 17 202 203
244 14 215 216
245 16 219 220
246 16 219 221
247 16 220 221
248 17 231 232

Angles

1 1 1 2 4
2 1 2 4 6
3 2 4 6 8
4 2 6 8 11
5 2 8 11 12
6 2 11 12 15
7 2 12 15 18
8 2 15 18 20
9 2 18 20 24
10 2 20 24 26
11 2 24 26 28
12 3 26 28 31
13 3 28 31 33
14 3 31 33 34
15 3 33 34 36
16 3 34 36 38
17 3 36 38 42
18 1 38 42 44
19 1 42 44 46
20 3 44 46 48
21 3 46 48 51
22 3 48 51 52
23 3 51 52 53
24 1 52 53 56
25 1 53 56 60
26 1 56 60 63
27 1 60 63 65
28 4 63 65 66
29 1 65 66 68
30 1 66 68 70
31 3 68 70 72
32 3 70 72 76
33 3 72 76 77
34 3 76 77 79
35 3 77 79 83
36 3 79 83 84
37 3 83 84 87
38 3 84 87 90
39 3 87 90 92
40 3 90 92 93
41 3 92 93 95
42 1 93 95 96
43 3 95 96 98
44 3 96 98 99
45 3 98 99 103
46 1 99 103 105
47 1 103 105 109
48 1 105 109 111
49 1 109 111 113
50 2 111 113 114
51 2 113 114 116
52 2 114 116 119
53 1 116 119 121
54 1 119 121 124
55 1 121 124 125
56 1 124 125 127
57 1 125 127 129
58 1 127 129 134
59 1 129 134 137
60 4 134 137 139
61 2 137 139 141
62 2 139 141 143
63 2 141 143 145
64 2 143 145 147
65 2 145 147 149
66 3 147 149 153
67 3 149 153 155
68 3 153 155 157
69 3 155 157 159
70 5 157 159 161
71 5 159 161 164
72 2 161 164 167
73 4 164 167 171
74 4 167 171 173
75 3 171 173 175
76 3 173 175 176
77 3 175 176 178
78 1 176 178 181
79 1 178 181 183
80 1 181 183 185
81 1 183 185 189
82 1 185 189 190
83 1 189 190 191
84 1 190 191 193
85 1 191 193 196
86 1 193 196 199
87 4 196 199 202
88 2 199 202 204
89 2 202 204 206
90 2 204 206 209
91 2 206 209 211
92 2 209 211 213
93 2 211 213 215
94 2 213 215 217
95 2 215 217 218
96 2 217 218 222
97 2 218 222 224
98 2 222 224 227
99 2 224 227 230
100 2 227 230 231
101 2 230 231 233
102 1 231 233 235
103 6 1 2 3
104 6 2 4 5
105 6 4 6 7
106 6 6 8 9
107 6 11 12 13
108 6 12 15 16
109 6 15 18 19
110 6 18 20 21
111 6 20 24 25
112 6 24 26 27
113 6 26 28 29
114 6 28 31 32
115 6 33 34 35
116 6 34 36 37
117 6 36 38 39
118 6 38 42 43
119 6 42 44 45
120 6 44 46 47
121 6 46 48 49
122 6 52 53 54
123 6 53 56 57
124 6 56 60 61
125 6 60 63 64
126 6 65 66 67
127 6 66 68 69
128 6 68 70 71
129 6 70 72 73
130 6 76 77 78
131 6 77 79 80
132 6 83 84 85
133 6 84 87 88
134 6 87 90 91
135 6 92 93 94
136 6 95 96 97
137 6 98 99 100
138 6 99 103 104
139 6 103 105 106
140 6 105 109 110
141 6 109 111 112
142 6 113 114 115
143 6 114 116 117
144 6 116 119 120
145 6 119 121 122
146 6 124 125 126
147 6 125 127 128
148 6 127 129 130
149 6 129 134 135
150 6 134 137 138
151 6 137 139 140
152 6 139 141 142
153 6 141 143 144
154 6 143 145 146
155 6 145 147 148
156 6 147 149 150
157 6 149 153 154
158 6 153 155 156
159 6 155 157 158
160 6 157 159 160
161 6 159 161 162
162 6 161 164 165
163 6 164 167 168
164 6 167 171 172
165 6 171 173 174
166 6 175 176 177
167 6 176 178 179
168 6 178 181 182
169 6 181 183 184
170 6 183 185 186
171 6 190 191 192
172 6 191 193 194
173 6 193 196 197
174 6 196 199 200
175 6 199 202 203
176 6 202 204 205
177 6 204 206 207
178 6 206 209 210
179 6 209 211 212
180 6 211 213 214
181 6 213 215 216
182 6 217 218 219
183 6 218 222 223
184 6 222 224 225
185 6 224 227 228
186 6 230 231 232
187 6 231 233 234
188 6 233 235 236
189 7 8 9 10
190 7 12 13 14
191 7 15 16 17
192 8 20 21 22
193 8 20 21 23
194 7 28 29 30
195 8 38 39 40
196 8 38 39 41
197 7 48 49 50
198 7 53 54 55
199 8 56 57 58
200 8 56 57 59
201 7 60 61 62
202 8 72 73 74
203 8 72 73 75
204 8 79 80 81
205 8 79 80 82
206 7 84 85 86
207 7 87 88 89
208 8 99 100 101
209 8 99 100 102
210 8 105 106 107
211 8 105 106 108
212 7 116 117 118
213 7 121 122 123
214 9 129 130 131
215 10 129 130 132
216 7 134 135 136
217 8 149 150 151
218 8 149 150 152
219 7 161 162 163
220 7 164 165 166
221 8 167 168 169
222 8 167 168 170
223 7 178 179 180
224 8 185 186 187
225 8 185 186 188
226 7 193 194 195
227 7 196 197 198
228 7 199 200 201
229 7 206 207 208
230 8 218 219 220
231 8 218 219 221
232 7 224 225 226
233 7 227 228 229

Dihedrals

1 1 4 6 8 11
2 1 6 8 11 12
3 1 8 11 12 15
4 1 11 12 15 18
5 1 12 15 18 20
6 1 15 18 20 24
7 1 18 20 24 26
8 1 20 24 26 28
9 1 111 113 114 116
10 1 113 114 116 119
11 1 137 139 141 143
12 1 139 141 143 145
13 1 141 143 145 147
14 1 143 145 147 149
15 1 159 161 164 167
16 1 199 202 204 206
17 1 202 204 206 209
18 1 204 206 209 211
19 1 206 209 211 213
20 1 209 211 213 215
21 1 211 213 215 217
22 1 213 215 217 218
23 1 215 217 218 222
24 1 217 218 222 224
25 1 218 222 224 227
26 1 222 224 227 230
27 1 224 227 230 231
28 1 227 230 231 233

Impropers

1 1 20 22 23 21
2 1 38 40 41 39
3 1 56 58 59 57
4 1 72 74 75 73
5 1 79 81 82 80
6 1 99 101 102 100
7 1 105 107 108 106
8 1 129 131 132 130
9 2 130 131 133 132
10 1 149 151 152 150
11 1 167 169 170 168
12 1 185 187 188 186
13 1 218 220 221 219

