LAMMPS data file via write_data, version 29 Oct 2020, timestep = 0

10 atoms
1 atom types
10 ellipsoids

0.0 5.0 xlo xhi
0.0 5.0 ylo yhi
0.0 5.0 zlo zhi

Atoms # ellipsoid

1 1 1 1.9098593171027443 3.973440039859415 1.746733027138573 0.65 1 -1 1
2 1 1 1.9098593171027443 0.01295656774813949 3.682408431792379 0.65 -1 -1 1
3 1 1 1.9098593171027443 0.3599034794840213 1.5086476695526776 0.65 1 1 1
4 1 1 1.9098593171027443 3.9472108850635026 0.7760842314635348 0.65 1 1 -1
5 1 1 1.9098593171027443 4.269210728993023 2.06097923480972 0.65 1 1 -1
6 1 1 1.9098593171027443 2.0788151804201602 0.9496540622412784 0.65 1 0 0
7 1 1 1.9098593171027443 1.955950880820395 2.735787510437116 0.65 1 -1 0
8 1 1 1.9098593171027443 4.447232412568436 3.542177018797576 0.65 1 1 -1
9 1 1 1.9098593171027443 1.199444664829483 4.422721671520331 0.65 -1 1 1
10 1 1 1.9098593171027443 3.050568586369682 3.138759720937728 0.65 1 -1 1

Ellipsoids

1 1.0 1.0 1.0 1.0 0.0 0.0 0.0
2 1.0 1.0 1.0 1.0 0.0 0.0 0.0
3 1.0 1.0 1.0 1.0 0.0 0.0 0.0
4 1.0 1.0 1.0 1.0 0.0 0.0 0.0
5 1.0 1.0 1.0 1.0 0.0 0.0 0.0
6 1.0 1.0 1.0 1.0 0.0 0.0 0.0
7 1.0 1.0 1.0 1.0 0.0 0.0 0.0
8 1.0 1.0 1.0 1.0 0.0 0.0 0.0
9 1.0 1.0 1.0 1.0 0.0 0.0 0.0
10 1.0 1.0 1.0 1.0 0.0 0.0 0.0
