length - 80.0, depth- 80.0, width- 100.0, dia- 10.0, dia big- 5.0, dia small - 2.0

2141 atoms

2 atom types

-40.5 40.5 xlo xhi
-40.5 40.5 ylo yhi
-190.0 190.0 zlo zhi

Masses

1 1
2 1

Pair Coeffs

1 1 2
2 1 5

Atoms

1 1 1 0 5.0 0.0 -50.0
2 1 1 0 5.0 0.0 -48.0
3 1 1 0 5.0 0.0 -46.0
4 1 1 0 5.0 0.0 -44.0
5 1 1 0 5.0 0.0 -42.0
6 1 1 0 5.0 0.0 -40.0
7 1 1 0 5.0 0.0 -38.0
8 1 1 0 5.0 0.0 -36.0
9 1 1 0 5.0 0.0 -34.0
10 1 1 0 5.0 0.0 -32.0
11 1 1 0 5.0 0.0 -30.0
12 1 1 0 5.0 0.0 -28.0
13 1 1 0 5.0 0.0 -26.0
14 1 1 0 5.0 0.0 -24.0
15 1 1 0 5.0 0.0 -22.0
16 1 1 0 5.0 0.0 -20.0
17 1 1 0 5.0 0.0 -18.0
18 1 1 0 5.0 0.0 -16.0
19 1 1 0 5.0 0.0 -14.0
20 1 1 0 5.0 0.0 -12.0
21 1 1 0 5.0 0.0 -10.0
22 1 1 0 5.0 0.0 -8.0
23 1 1 0 5.0 0.0 -6.0
24 1 1 0 5.0 0.0 -4.0
25 1 1 0 5.0 0.0 -2.0
26 1 1 0 5.0 0.0 0.0
27 1 1 0 5.0 0.0 2.0
28 1 1 0 5.0 0.0 4.0
29 1 1 0 5.0 0.0 6.0
30 1 1 0 5.0 0.0 8.0
31 1 1 0 5.0 0.0 10.0
32 1 1 0 5.0 0.0 12.0
33 1 1 0 5.0 0.0 14.0
34 1 1 0 5.0 0.0 16.0
35 1 1 0 5.0 0.0 18.0
36 1 1 0 5.0 0.0 20.0
37 1 1 0 5.0 0.0 22.0
38 1 1 0 5.0 0.0 24.0
39 1 1 0 5.0 0.0 26.0
40 1 1 0 5.0 0.0 28.0
41 1 1 0 5.0 0.0 30.0
42 1 1 0 5.0 0.0 32.0
43 1 1 0 5.0 0.0 34.0
44 1 1 0 5.0 0.0 36.0
45 1 1 0 5.0 0.0 38.0
46 1 1 0 5.0 0.0 40.0
47 1 1 0 5.0 0.0 42.0
48 1 1 0 5.0 0.0 44.0
49 1 1 0 5.0 0.0 46.0
50 1 1 0 5.0 0.0 48.0
51 1 1 0 5.0 0.0 50.0
52 1 1 0 4.9 0.9949874371066204 -50.0
53 1 1 0 4.9 0.9949874371066204 -48.0
54 1 1 0 4.9 0.9949874371066204 -46.0
55 1 1 0 4.9 0.9949874371066204 -44.0
56 1 1 0 4.9 0.9949874371066204 -42.0
57 1 1 0 4.9 0.9949874371066204 -40.0
58 1 1 0 4.9 0.9949874371066204 -38.0
59 1 1 0 4.9 0.9949874371066204 -36.0
60 1 1 0 4.9 0.9949874371066204 -34.0
61 1 1 0 4.9 0.9949874371066204 -32.0
62 1 1 0 4.9 0.9949874371066204 -30.0
63 1 1 0 4.9 0.9949874371066204 -28.0
64 1 1 0 4.9 0.9949874371066204 -26.0
65 1 1 0 4.9 0.9949874371066204 -24.0
66 1 1 0 4.9 0.9949874371066204 -22.0
67 1 1 0 4.9 0.9949874371066204 -20.0
68 1 1 0 4.9 0.9949874371066204 -18.0
69 1 1 0 4.9 0.9949874371066204 -16.0
70 1 1 0 4.9 0.9949874371066204 -14.0
71 1 1 0 4.9 0.9949874371066204 -12.0
72 1 1 0 4.9 0.9949874371066204 -10.0
73 1 1 0 4.9 0.9949874371066204 -8.0
74 1 1 0 4.9 0.9949874371066204 -6.0
75 1 1 0 4.9 0.9949874371066204 -4.0
76 1 1 0 4.9 0.9949874371066204 -2.0
77 1 1 0 4.9 0.9949874371066204 0.0
78 1 1 0 4.9 0.9949874371066204 2.0
79 1 1 0 4.9 0.9949874371066204 4.0
80 1 1 0 4.9 0.9949874371066204 6.0
81 1 1 0 4.9 0.9949874371066204 8.0
82 1 1 0 4.9 0.9949874371066204 10.0
83 1 1 0 4.9 0.9949874371066204 12.0
84 1 1 0 4.9 0.9949874371066204 14.0
85 1 1 0 4.9 0.9949874371066204 16.0
86 1 1 0 4.9 0.9949874371066204 18.0
87 1 1 0 4.9 0.9949874371066204 20.0
88 1 1 0 4.9 0.9949874371066204 22.0
89 1 1 0 4.9 0.9949874371066204 24.0
90 1 1 0 4.9 0.9949874371066204 26.0
91 1 1 0 4.9 0.9949874371066204 28.0
92 1 1 0 4.9 0.9949874371066204 30.0
93 1 1 0 4.9 0.9949874371066204 32.0
94 1 1 0 4.9 0.9949874371066204 34.0
95 1 1 0 4.9 0.9949874371066204 36.0
96 1 1 0 4.9 0.9949874371066204 38.0
97 1 1 0 4.9 0.9949874371066204 40.0
98 1 1 0 4.9 0.9949874371066204 42.0
99 1 1 0 4.9 0.9949874371066204 44.0
100 1 1 0 4.9 0.9949874371066204 46.0
101 1 1 0 4.9 0.9949874371066204 48.0
102 1 1 0 4.9 0.9949874371066204 50.0
103 1 1 0 4.604 1.9501753767289758 -50.0
104 1 1 0 4.604 1.9501753767289758 -48.0
105 1 1 0 4.604 1.9501753767289758 -46.0
106 1 1 0 4.604 1.9501753767289758 -44.0
107 1 1 0 4.604 1.9501753767289758 -42.0
108 1 1 0 4.604 1.9501753767289758 -40.0
109 1 1 0 4.604 1.9501753767289758 -38.0
110 1 1 0 4.604 1.9501753767289758 -36.0
111 1 1 0 4.604 1.9501753767289758 -34.0
112 1 1 0 4.604 1.9501753767289758 -32.0
113 1 1 0 4.604 1.9501753767289758 -30.0
114 1 1 0 4.604 1.9501753767289758 -28.0
115 1 1 0 4.604 1.9501753767289758 -26.0
116 1 1 0 4.604 1.9501753767289758 -24.0
117 1 1 0 4.604 1.9501753767289758 -22.0
118 1 1 0 4.604 1.9501753767289758 -20.0
119 1 1 0 4.604 1.9501753767289758 -18.0
120 1 1 0 4.604 1.9501753767289758 -16.0
121 1 1 0 4.604 1.9501753767289758 -14.0
122 1 1 0 4.604 1.9501753767289758 -12.0
123 1 1 0 4.604 1.9501753767289758 -10.0
124 1 1 0 4.604 1.9501753767289758 -8.0
125 1 1 0 4.604 1.9501753767289758 -6.0
126 1 1 0 4.604 1.9501753767289758 -4.0
127 1 1 0 4.604 1.9501753767289758 -2.0
128 1 1 0 4.604 1.9501753767289758 0.0
129 1 1 0 4.604 1.9501753767289758 2.0
130 1 1 0 4.604 1.9501753767289758 4.0
131 1 1 0 4.604 1.9501753767289758 6.0
132 1 1 0 4.604 1.9501753767289758 8.0
133 1 1 0 4.604 1.9501753767289758 10.0
134 1 1 0 4.604 1.9501753767289758 12.0
135 1 1 0 4.604 1.9501753767289758 14.0
136 1 1 0 4.604 1.9501753767289758 16.0
137 1 1 0 4.604 1.9501753767289758 18.0
138 1 1 0 4.604 1.9501753767289758 20.0
139 1 1 0 4.604 1.9501753767289758 22.0
140 1 1 0 4.604 1.9501753767289758 24.0
141 1 1 0 4.604 1.9501753767289758 26.0
142 1 1 0 4.604 1.9501753767289758 28.0
143 1 1 0 4.604 1.9501753767289758 30.0
144 1 1 0 4.604 1.9501753767289758 32.0
145 1 1 0 4.604 1.9501753767289758 34.0
146 1 1 0 4.604 1.9501753767289758 36.0
147 1 1 0 4.604 1.9501753767289758 38.0
148 1 1 0 4.604 1.9501753767289758 40.0
149 1 1 0 4.604 1.9501753767289758 42.0
150 1 1 0 4.604 1.9501753767289758 44.0
151 1 1 0 4.604 1.9501753767289758 46.0
152 1 1 0 4.604 1.9501753767289758 48.0
153 1 1 0 4.604 1.9501753767289758 50.0
154 1 1 0 4.1238399999999995 2.8273563012821725 -50.0
155 1 1 0 4.1238399999999995 2.8273563012821725 -48.0
156 1 1 0 4.1238399999999995 2.8273563012821725 -46.0
157 1 1 0 4.1238399999999995 2.8273563012821725 -44.0
158 1 1 0 4.1238399999999995 2.8273563012821725 -42.0
159 1 1 0 4.1238399999999995 2.8273563012821725 -40.0
160 1 1 0 4.1238399999999995 2.8273563012821725 -38.0
161 1 1 0 4.1238399999999995 2.8273563012821725 -36.0
162 1 1 0 4.1238399999999995 2.8273563012821725 -34.0
163 1 1 0 4.1238399999999995 2.8273563012821725 -32.0
164 1 1 0 4.1238399999999995 2.8273563012821725 -30.0
165 1 1 0 4.1238399999999995 2.8273563012821725 -28.0
166 1 1 0 4.1238399999999995 2.8273563012821725 -26.0
167 1 1 0 4.1238399999999995 2.8273563012821725 -24.0
168 1 1 0 4.1238399999999995 2.8273563012821725 -22.0
169 1 1 0 4.1238399999999995 2.8273563012821725 -20.0
170 1 1 0 4.1238399999999995 2.8273563012821725 -18.0
171 1 1 0 4.1238399999999995 2.8273563012821725 -16.0
172 1 1 0 4.1238399999999995 2.8273563012821725 -14.0
173 1 1 0 4.1238399999999995 2.8273563012821725 -12.0
174 1 1 0 4.1238399999999995 2.8273563012821725 -10.0
175 1 1 0 4.1238399999999995 2.8273563012821725 -8.0
176 1 1 0 4.1238399999999995 2.8273563012821725 -6.0
177 1 1 0 4.1238399999999995 2.8273563012821725 -4.0
178 1 1 0 4.1238399999999995 2.8273563012821725 -2.0
179 1 1 0 4.1238399999999995 2.8273563012821725 0.0
180 1 1 0 4.1238399999999995 2.8273563012821725 2.0
181 1 1 0 4.1238399999999995 2.8273563012821725 4.0
182 1 1 0 4.1238399999999995 2.8273563012821725 6.0
183 1 1 0 4.1238399999999995 2.8273563012821725 8.0
184 1 1 0 4.1238399999999995 2.8273563012821725 10.0
185 1 1 0 4.1238399999999995 2.8273563012821725 12.0
186 1 1 0 4.1238399999999995 2.8273563012821725 14.0
187 1 1 0 4.1238399999999995 2.8273563012821725 16.0
188 1 1 0 4.1238399999999995 2.8273563012821725 18.0
189 1 1 0 4.1238399999999995 2.8273563012821725 20.0
190 1 1 0 4.1238399999999995 2.8273563012821725 22.0
191 1 1 0 4.1238399999999995 2.8273563012821725 24.0
192 1 1 0 4.1238399999999995 2.8273563012821725 26.0
193 1 1 0 4.1238399999999995 2.8273563012821725 28.0
194 1 1 0 4.1238399999999995 2.8273563012821725 30.0
195 1 1 0 4.1238399999999995 2.8273563012821725 32.0
196 1 1 0 4.1238399999999995 2.8273563012821725 34.0
197 1 1 0 4.1238399999999995 2.8273563012821725 36.0
198 1 1 0 4.1238399999999995 2.8273563012821725 38.0
199 1 1 0 4.1238399999999995 2.8273563012821725 40.0
200 1 1 0 4.1238399999999995 2.8273563012821725 42.0
201 1 1 0 4.1238399999999995 2.8273563012821725 44.0
202 1 1 0 4.1238399999999995 2.8273563012821725 46.0
203 1 1 0 4.1238399999999995 2.8273563012821725 48.0
204 1 1 0 4.1238399999999995 2.8273563012821725 50.0
205 1 1 0 3.4787263999999984 3.591442973784082 -50.0
206 1 1 0 3.4787263999999984 3.591442973784082 -48.0
207 1 1 0 3.4787263999999984 3.591442973784082 -46.0
208 1 1 0 3.4787263999999984 3.591442973784082 -44.0
209 1 1 0 3.4787263999999984 3.591442973784082 -42.0
210 1 1 0 3.4787263999999984 3.591442973784082 -40.0
211 1 1 0 3.4787263999999984 3.591442973784082 -38.0
212 1 1 0 3.4787263999999984 3.591442973784082 -36.0
213 1 1 0 3.4787263999999984 3.591442973784082 -34.0
214 1 1 0 3.4787263999999984 3.591442973784082 -32.0
215 1 1 0 3.4787263999999984 3.591442973784082 -30.0
216 1 1 0 3.4787263999999984 3.591442973784082 -28.0
217 1 1 0 3.4787263999999984 3.591442973784082 -26.0
218 1 1 0 3.4787263999999984 3.591442973784082 -24.0
219 1 1 0 3.4787263999999984 3.591442973784082 -22.0
220 1 1 0 3.4787263999999984 3.591442973784082 -20.0
221 1 1 0 3.4787263999999984 3.591442973784082 -18.0
222 1 1 0 3.4787263999999984 3.591442973784082 -16.0
223 1 1 0 3.4787263999999984 3.591442973784082 -14.0
224 1 1 0 3.4787263999999984 3.591442973784082 -12.0
225 1 1 0 3.4787263999999984 3.591442973784082 -10.0
226 1 1 0 3.4787263999999984 3.591442973784082 -8.0
227 1 1 0 3.4787263999999984 3.591442973784082 -6.0
228 1 1 0 3.4787263999999984 3.591442973784082 -4.0
229 1 1 0 3.4787263999999984 3.591442973784082 -2.0
230 1 1 0 3.4787263999999984 3.591442973784082 0.0
231 1 1 0 3.4787263999999984 3.591442973784082 2.0
232 1 1 0 3.4787263999999984 3.591442973784082 4.0
233 1 1 0 3.4787263999999984 3.591442973784082 6.0
234 1 1 0 3.4787263999999984 3.591442973784082 8.0
235 1 1 0 3.4787263999999984 3.591442973784082 10.0
236 1 1 0 3.4787263999999984 3.591442973784082 12.0
237 1 1 0 3.4787263999999984 3.591442973784082 14.0
238 1 1 0 3.4787263999999984 3.591442973784082 16.0
239 1 1 0 3.4787263999999984 3.591442973784082 18.0
240 1 1 0 3.4787263999999984 3.591442973784082 20.0
241 1 1 0 3.4787263999999984 3.591442973784082 22.0
242 1 1 0 3.4787263999999984 3.591442973784082 24.0
243 1 1 0 3.4787263999999984 3.591442973784082 26.0
244 1 1 0 3.4787263999999984 3.591442973784082 28.0
245 1 1 0 3.4787263999999984 3.591442973784082 30.0
246 1 1 0 3.4787263999999984 3.591442973784082 32.0
247 1 1 0 3.4787263999999984 3.591442973784082 34.0
248 1 1 0 3.4787263999999984 3.591442973784082 36.0
249 1 1 0 3.4787263999999984 3.591442973784082 38.0
250 1 1 0 3.4787263999999984 3.591442973784082 40.0
251 1 1 0 3.4787263999999984 3.591442973784082 42.0
252 1 1 0 3.4787263999999984 3.591442973784082 44.0
253 1 1 0 3.4787263999999984 3.591442973784082 46.0
254 1 1 0 3.4787263999999984 3.591442973784082 48.0
255 1 1 0 3.4787263999999984 3.591442973784082 50.0
256 1 1 0 2.6944637439999983 4.211871927334628 -50.0
257 1 1 0 2.6944637439999983 4.211871927334628 -48.0
258 1 1 0 2.6944637439999983 4.211871927334628 -46.0
259 1 1 0 2.6944637439999983 4.211871927334628 -44.0
260 1 1 0 2.6944637439999983 4.211871927334628 -42.0
261 1 1 0 2.6944637439999983 4.211871927334628 -40.0
262 1 1 0 2.6944637439999983 4.211871927334628 -38.0
263 1 1 0 2.6944637439999983 4.211871927334628 -36.0
264 1 1 0 2.6944637439999983 4.211871927334628 -34.0
265 1 1 0 2.6944637439999983 4.211871927334628 -32.0
266 1 1 0 2.6944637439999983 4.211871927334628 -30.0
267 1 1 0 2.6944637439999983 4.211871927334628 -28.0
268 1 1 0 2.6944637439999983 4.211871927334628 -26.0
269 1 1 0 2.6944637439999983 4.211871927334628 -24.0
270 1 1 0 2.6944637439999983 4.211871927334628 -22.0
271 1 1 0 2.6944637439999983 4.211871927334628 -20.0
272 1 1 0 2.6944637439999983 4.211871927334628 -18.0
273 1 1 0 2.6944637439999983 4.211871927334628 -16.0
274 1 1 0 2.6944637439999983 4.211871927334628 -14.0
275 1 1 0 2.6944637439999983 4.211871927334628 -12.0
276 1 1 0 2.6944637439999983 4.211871927334628 -10.0
277 1 1 0 2.6944637439999983 4.211871927334628 -8.0
278 1 1 0 2.6944637439999983 4.211871927334628 -6.0
279 1 1 0 2.6944637439999983 4.211871927334628 -4.0
280 1 1 0 2.6944637439999983 4.211871927334628 -2.0
281 1 1 0 2.6944637439999983 4.211871927334628 0.0
282 1 1 0 2.6944637439999983 4.211871927334628 2.0
283 1 1 0 2.6944637439999983 4.211871927334628 4.0
284 1 1 0 2.6944637439999983 4.211871927334628 6.0
285 1 1 0 2.6944637439999983 4.211871927334628 8.0
286 1 1 0 2.6944637439999983 4.211871927334628 10.0
287 1 1 0 2.6944637439999983 4.211871927334628 12.0
288 1 1 0 2.6944637439999983 4.211871927334628 14.0
289 1 1 0 2.6944637439999983 4.211871927334628 16.0
290 1 1 0 2.6944637439999983 4.211871927334628 18.0
291 1 1 0 2.6944637439999983 4.211871927334628 20.0
292 1 1 0 2.6944637439999983 4.211871927334628 22.0
293 1 1 0 2.6944637439999983 4.211871927334628 24.0
294 1 1 0 2.6944637439999983 4.211871927334628 26.0
295 1 1 0 2.6944637439999983 4.211871927334628 28.0
296 1 1 0 2.6944637439999983 4.211871927334628 30.0
297 1 1 0 2.6944637439999983 4.211871927334628 32.0
298 1 1 0 2.6944637439999983 4.211871927334628 34.0
299 1 1 0 2.6944637439999983 4.211871927334628 36.0
300 1 1 0 2.6944637439999983 4.211871927334628 38.0
301 1 1 0 2.6944637439999983 4.211871927334628 40.0
302 1 1 0 2.6944637439999983 4.211871927334628 42.0
303 1 1 0 2.6944637439999983 4.211871927334628 44.0
304 1 1 0 2.6944637439999983 4.211871927334628 46.0
305 1 1 0 2.6944637439999983 4.211871927334628 48.0
306 1 1 0 2.6944637439999983 4.211871927334628 50.0
307 1 1 0 1.8024225382399979 4.6638260037917885 -50.0
308 1 1 0 1.8024225382399979 4.6638260037917885 -48.0
309 1 1 0 1.8024225382399979 4.6638260037917885 -46.0
310 1 1 0 1.8024225382399979 4.6638260037917885 -44.0
311 1 1 0 1.8024225382399979 4.6638260037917885 -42.0
312 1 1 0 1.8024225382399979 4.6638260037917885 -40.0
313 1 1 0 1.8024225382399979 4.6638260037917885 -38.0
314 1 1 0 1.8024225382399979 4.6638260037917885 -36.0
315 1 1 0 1.8024225382399979 4.6638260037917885 -34.0
316 1 1 0 1.8024225382399979 4.6638260037917885 -32.0
317 1 1 0 1.8024225382399979 4.6638260037917885 -30.0
318 1 1 0 1.8024225382399979 4.6638260037917885 -28.0
319 1 1 0 1.8024225382399979 4.6638260037917885 -26.0
320 1 1 0 1.8024225382399979 4.6638260037917885 -24.0
321 1 1 0 1.8024225382399979 4.6638260037917885 -22.0
322 1 1 0 1.8024225382399979 4.6638260037917885 -20.0
323 1 1 0 1.8024225382399979 4.6638260037917885 -18.0
324 1 1 0 1.8024225382399979 4.6638260037917885 -16.0
325 1 1 0 1.8024225382399979 4.6638260037917885 -14.0
326 1 1 0 1.8024225382399979 4.6638260037917885 -12.0
327 1 1 0 1.8024225382399979 4.6638260037917885 -10.0
328 1 1 0 1.8024225382399979 4.6638260037917885 -8.0
329 1 1 0 1.8024225382399979 4.6638260037917885 -6.0
330 1 1 0 1.8024225382399979 4.6638260037917885 -4.0
331 1 1 0 1.8024225382399979 4.6638260037917885 -2.0
332 1 1 0 1.8024225382399979 4.6638260037917885 0.0
333 1 1 0 1.8024225382399979 4.6638260037917885 2.0
334 1 1 0 1.8024225382399979 4.6638260037917885 4.0
335 1 1 0 1.8024225382399979 4.6638260037917885 6.0
336 1 1 0 1.8024225382399979 4.6638260037917885 8.0
337 1 1 0 1.8024225382399979 4.6638260037917885 10.0
338 1 1 0 1.8024225382399979 4.6638260037917885 12.0
339 1 1 0 1.8024225382399979 4.6638260037917885 14.0
340 1 1 0 1.8024225382399979 4.6638260037917885 16.0
341 1 1 0 1.8024225382399979 4.6638260037917885 18.0
342 1 1 0 1.8024225382399979 4.6638260037917885 20.0
343 1 1 0 1.8024225382399979 4.6638260037917885 22.0
344 1 1 0 1.8024225382399979 4.6638260037917885 24.0
345 1 1 0 1.8024225382399979 4.6638260037917885 26.0
346 1 1 0 1.8024225382399979 4.6638260037917885 28.0
347 1 1 0 1.8024225382399979 4.6638260037917885 30.0
348 1 1 0 1.8024225382399979 4.6638260037917885 32.0
349 1 1 0 1.8024225382399979 4.6638260037917885 34.0
350 1 1 0 1.8024225382399979 4.6638260037917885 36.0
351 1 1 0 1.8024225382399979 4.6638260037917885 38.0
352 1 1 0 1.8024225382399979 4.6638260037917885 40.0
353 1 1 0 1.8024225382399979 4.6638260037917885 42.0
354 1 1 0 1.8024225382399979 4.6638260037917885 44.0
355 1 1 0 1.8024225382399979 4.6638260037917885 46.0
356 1 1 0 1.8024225382399979 4.6638260037917885 48.0
357 1 1 0 1.8024225382399979 4.6638260037917885 50.0
358 1 1 0 0.838284430950397 4.9292270400972775 -50.0
359 1 1 0 0.838284430950397 4.9292270400972775 -48.0
360 1 1 0 0.838284430950397 4.9292270400972775 -46.0
361 1 1 0 0.838284430950397 4.9292270400972775 -44.0
362 1 1 0 0.838284430950397 4.9292270400972775 -42.0
363 1 1 0 0.838284430950397 4.9292270400972775 -40.0
364 1 1 0 0.838284430950397 4.9292270400972775 -38.0
365 1 1 0 0.838284430950397 4.9292270400972775 -36.0
366 1 1 0 0.838284430950397 4.9292270400972775 -34.0
367 1 1 0 0.838284430950397 4.9292270400972775 -32.0
368 1 1 0 0.838284430950397 4.9292270400972775 -30.0
369 1 1 0 0.838284430950397 4.9292270400972775 -28.0
370 1 1 0 0.838284430950397 4.9292270400972775 -26.0
371 1 1 0 0.838284430950397 4.9292270400972775 -24.0
372 1 1 0 0.838284430950397 4.9292270400972775 -22.0
373 1 1 0 0.838284430950397 4.9292270400972775 -20.0
374 1 1 0 0.838284430950397 4.9292270400972775 -18.0
375 1 1 0 0.838284430950397 4.9292270400972775 -16.0
376 1 1 0 0.838284430950397 4.9292270400972775 -14.0
377 1 1 0 0.838284430950397 4.9292270400972775 -12.0
378 1 1 0 0.838284430950397 4.9292270400972775 -10.0
379 1 1 0 0.838284430950397 4.9292270400972775 -8.0
380 1 1 0 0.838284430950397 4.9292270400972775 -6.0
381 1 1 0 0.838284430950397 4.9292270400972775 -4.0
382 1 1 0 0.838284430950397 4.9292270400972775 -2.0
383 1 1 0 0.838284430950397 4.9292270400972775 0.0
384 1 1 0 0.838284430950397 4.9292270400972775 2.0
385 1 1 0 0.838284430950397 4.9292270400972775 4.0
386 1 1 0 0.838284430950397 4.9292270400972775 6.0
387 1 1 0 0.838284430950397 4.9292270400972775 8.0
388 1 1 0 0.838284430950397 4.9292270400972775 10.0
389 1 1 0 0.838284430950397 4.9292270400972775 12.0
390 1 1 0 0.838284430950397 4.9292270400972775 14.0
391 1 1 0 0.838284430950397 4.9292270400972775 16.0
392 1 1 0 0.838284430950397 4.9292270400972775 18.0
393 1 1 0 0.838284430950397 4.9292270400972775 20.0
394 1 1 0 0.838284430950397 4.9292270400972775 22.0
395 1 1 0 0.838284430950397 4.9292270400972775 24.0
396 1 1 0 0.838284430950397 4.9292270400972775 26.0
397 1 1 0 0.838284430950397 4.9292270400972775 28.0
398 1 1 0 0.838284430950397 4.9292270400972775 30.0
399 1 1 0 0.838284430950397 4.9292270400972775 32.0
400 1 1 0 0.838284430950397 4.9292270400972775 34.0
401 1 1 0 0.838284430950397 4.9292270400972775 36.0
402 1 1 0 0.838284430950397 4.9292270400972775 38.0
403 1 1 0 0.838284430950397 4.9292270400972775 40.0
404 1 1 0 0.838284430950397 4.9292270400972775 42.0
405 1 1 0 0.838284430950397 4.9292270400972775 44.0
406 1 1 0 0.838284430950397 4.9292270400972775 46.0
407 1 1 0 0.838284430950397 4.9292270400972775 48.0
408 1 1 0 0.838284430950397 4.9292270400972775 50.0
409 1 1 0 -0.1593850535772196 4.997458994798876 -50.0
410 1 1 0 -0.1593850535772196 4.997458994798876 -48.0
411 1 1 0 -0.1593850535772196 4.997458994798876 -46.0
412 1 1 0 -0.1593850535772196 4.997458994798876 -44.0
413 1 1 0 -0.1593850535772196 4.997458994798876 -42.0
414 1 1 0 -0.1593850535772196 4.997458994798876 -40.0
415 1 1 0 -0.1593850535772196 4.997458994798876 -38.0
416 1 1 0 -0.1593850535772196 4.997458994798876 -36.0
417 1 1 0 -0.1593850535772196 4.997458994798876 -34.0
418 1 1 0 -0.1593850535772196 4.997458994798876 -32.0
419 1 1 0 -0.1593850535772196 4.997458994798876 -30.0
420 1 1 0 -0.1593850535772196 4.997458994798876 -28.0
421 1 1 0 -0.1593850535772196 4.997458994798876 -26.0
422 1 1 0 -0.1593850535772196 4.997458994798876 -24.0
423 1 1 0 -0.1593850535772196 4.997458994798876 -22.0
424 1 1 0 -0.1593850535772196 4.997458994798876 -20.0
425 1 1 0 -0.1593850535772196 4.997458994798876 -18.0
426 1 1 0 -0.1593850535772196 4.997458994798876 -16.0
427 1 1 0 -0.1593850535772196 4.997458994798876 -14.0
428 1 1 0 -0.1593850535772196 4.997458994798876 -12.0
429 1 1 0 -0.1593850535772196 4.997458994798876 -10.0
430 1 1 0 -0.1593850535772196 4.997458994798876 -8.0
431 1 1 0 -0.1593850535772196 4.997458994798876 -6.0
432 1 1 0 -0.1593850535772196 4.997458994798876 -4.0
433 1 1 0 -0.1593850535772196 4.997458994798876 -2.0
434 1 1 0 -0.1593850535772196 4.997458994798876 0.0
435 1 1 0 -0.1593850535772196 4.997458994798876 2.0
436 1 1 0 -0.1593850535772196 4.997458994798876 4.0
437 1 1 0 -0.1593850535772196 4.997458994798876 6.0
438 1 1 0 -0.1593850535772196 4.997458994798876 8.0
439 1 1 0 -0.1593850535772196 4.997458994798876 10.0
440 1 1 0 -0.1593850535772196 4.997458994798876 12.0
441 1 1 0 -0.1593850535772196 4.997458994798876 14.0
442 1 1 0 -0.1593850535772196 4.997458994798876 16.0
443 1 1 0 -0.1593850535772196 4.997458994798876 18.0
444 1 1 0 -0.1593850535772196 4.997458994798876 20.0
445 1 1 0 -0.1593850535772196 4.997458994798876 22.0
446 1 1 0 -0.1593850535772196 4.997458994798876 24.0
447 1 1 0 -0.1593850535772196 4.997458994798876 26.0
448 1 1 0 -0.1593850535772196 4.997458994798876 28.0
449 1 1 0 -0.1593850535772196 4.997458994798876 30.0
450 1 1 0 -0.1593850535772196 4.997458994798876 32.0
451 1 1 0 -0.1593850535772196 4.997458994798876 34.0
452 1 1 0 -0.1593850535772196 4.997458994798876 36.0
453 1 1 0 -0.1593850535772196 4.997458994798876 38.0
454 1 1 0 -0.1593850535772196 4.997458994798876 40.0
455 1 1 0 -0.1593850535772196 4.997458994798876 42.0
456 1 1 0 -0.1593850535772196 4.997458994798876 44.0
457 1 1 0 -0.1593850535772196 4.997458994798876 46.0
458 1 1 0 -0.1593850535772196 4.997458994798876 48.0
459 1 1 0 -0.1593850535772196 4.997458994798876 50.0
460 1 1 0 -1.1506791359617474 4.865792589708518 -50.0
461 1 1 0 -1.1506791359617474 4.865792589708518 -48.0
462 1 1 0 -1.1506791359617474 4.865792589708518 -46.0
463 1 1 0 -1.1506791359617474 4.865792589708518 -44.0
464 1 1 0 -1.1506791359617474 4.865792589708518 -42.0
465 1 1 0 -1.1506791359617474 4.865792589708518 -40.0
466 1 1 0 -1.1506791359617474 4.865792589708518 -38.0
467 1 1 0 -1.1506791359617474 4.865792589708518 -36.0
468 1 1 0 -1.1506791359617474 4.865792589708518 -34.0
469 1 1 0 -1.1506791359617474 4.865792589708518 -32.0
470 1 1 0 -1.1506791359617474 4.865792589708518 -30.0
471 1 1 0 -1.1506791359617474 4.865792589708518 -28.0
472 1 1 0 -1.1506791359617474 4.865792589708518 -26.0
473 1 1 0 -1.1506791359617474 4.865792589708518 -24.0
474 1 1 0 -1.1506791359617474 4.865792589708518 -22.0
475 1 1 0 -1.1506791359617474 4.865792589708518 -20.0
476 1 1 0 -1.1506791359617474 4.865792589708518 -18.0
477 1 1 0 -1.1506791359617474 4.865792589708518 -16.0
478 1 1 0 -1.1506791359617474 4.865792589708518 -14.0
479 1 1 0 -1.1506791359617474 4.865792589708518 -12.0
480 1 1 0 -1.1506791359617474 4.865792589708518 -10.0
481 1 1 0 -1.1506791359617474 4.865792589708518 -8.0
482 1 1 0 -1.1506791359617474 4.865792589708518 -6.0
483 1 1 0 -1.1506791359617474 4.865792589708518 -4.0
484 1 1 0 -1.1506791359617474 4.865792589708518 -2.0
485 1 1 0 -1.1506791359617474 4.865792589708518 0.0
486 1 1 0 -1.1506791359617474 4.865792589708518 2.0
487 1 1 0 -1.1506791359617474 4.865792589708518 4.0
488 1 1 0 -1.1506791359617474 4.865792589708518 6.0
489 1 1 0 -1.1506791359617474 4.865792589708518 8.0
490 1 1 0 -1.1506791359617474 4.865792589708518 10.0
491 1 1 0 -1.1506791359617474 4.865792589708518 12.0
492 1 1 0 -1.1506791359617474 4.865792589708518 14.0
493 1 1 0 -1.1506791359617474 4.865792589708518 16.0
494 1 1 0 -1.1506791359617474 4.865792589708518 18.0
495 1 1 0 -1.1506791359617474 4.865792589708518 20.0
496 1 1 0 -1.1506791359617474 4.865792589708518 22.0
497 1 1 0 -1.1506791359617474 4.865792589708518 24.0
498 1 1 0 -1.1506791359617474 4.865792589708518 26.0
499 1 1 0 -1.1506791359617474 4.865792589708518 28.0
500 1 1 0 -1.1506791359617474 4.865792589708518 30.0
501 1 1 0 -1.1506791359617474 4.865792589708518 32.0
502 1 1 0 -1.1506791359617474 4.865792589708518 34.0
503 1 1 0 -1.1506791359617474 4.865792589708518 36.0
504 1 1 0 -1.1506791359617474 4.865792589708518 38.0
505 1 1 0 -1.1506791359617474 4.865792589708518 40.0
506 1 1 0 -1.1506791359617474 4.865792589708518 42.0
507 1 1 0 -1.1506791359617474 4.865792589708518 44.0
508 1 1 0 -1.1506791359617474 4.865792589708518 46.0
509 1 1 0 -1.1506791359617474 4.865792589708518 48.0
510 1 1 0 -1.1506791359617474 4.865792589708518 50.0
511 1 1 0 -2.0959460529078044 4.53949448102982 -50.0
512 1 1 0 -2.0959460529078044 4.53949448102982 -48.0
513 1 1 0 -2.0959460529078044 4.53949448102982 -46.0
514 1 1 0 -2.0959460529078044 4.53949448102982 -44.0
515 1 1 0 -2.0959460529078044 4.53949448102982 -42.0
516 1 1 0 -2.0959460529078044 4.53949448102982 -40.0
517 1 1 0 -2.0959460529078044 4.53949448102982 -38.0
518 1 1 0 -2.0959460529078044 4.53949448102982 -36.0
519 1 1 0 -2.0959460529078044 4.53949448102982 -34.0
520 1 1 0 -2.0959460529078044 4.53949448102982 -32.0
521 1 1 0 -2.0959460529078044 4.53949448102982 -30.0
522 1 1 0 -2.0959460529078044 4.53949448102982 -28.0
523 1 1 0 -2.0959460529078044 4.53949448102982 -26.0
524 1 1 0 -2.0959460529078044 4.53949448102982 -24.0
525 1 1 0 -2.0959460529078044 4.53949448102982 -22.0
526 1 1 0 -2.0959460529078044 4.53949448102982 -20.0
527 1 1 0 -2.0959460529078044 4.53949448102982 -18.0
528 1 1 0 -2.0959460529078044 4.53949448102982 -16.0
529 1 1 0 -2.0959460529078044 4.53949448102982 -14.0
530 1 1 0 -2.0959460529078044 4.53949448102982 -12.0
531 1 1 0 -2.0959460529078044 4.53949448102982 -10.0
532 1 1 0 -2.0959460529078044 4.53949448102982 -8.0
533 1 1 0 -2.0959460529078044 4.53949448102982 -6.0
534 1 1 0 -2.0959460529078044 4.53949448102982 -4.0
535 1 1 0 -2.0959460529078044 4.53949448102982 -2.0
536 1 1 0 -2.0959460529078044 4.53949448102982 0.0
537 1 1 0 -2.0959460529078044 4.53949448102982 2.0
538 1 1 0 -2.0959460529078044 4.53949448102982 4.0
539 1 1 0 -2.0959460529078044 4.53949448102982 6.0
540 1 1 0 -2.0959460529078044 4.53949448102982 8.0
541 1 1 0 -2.0959460529078044 4.53949448102982 10.0
542 1 1 0 -2.0959460529078044 4.53949448102982 12.0
543 1 1 0 -2.0959460529078044 4.53949448102982 14.0
544 1 1 0 -2.0959460529078044 4.53949448102982 16.0
545 1 1 0 -2.0959460529078044 4.53949448102982 18.0
546 1 1 0 -2.0959460529078044 4.53949448102982 20.0
547 1 1 0 -2.0959460529078044 4.53949448102982 22.0
548 1 1 0 -2.0959460529078044 4.53949448102982 24.0
549 1 1 0 -2.0959460529078044 4.53949448102982 26.0
550 1 1 0 -2.0959460529078044 4.53949448102982 28.0
551 1 1 0 -2.0959460529078044 4.53949448102982 30.0
552 1 1 0 -2.0959460529078044 4.53949448102982 32.0
553 1 1 0 -2.0959460529078044 4.53949448102982 34.0
554 1 1 0 -2.0959460529078044 4.53949448102982 36.0
555 1 1 0 -2.0959460529078044 4.53949448102982 38.0
556 1 1 0 -2.0959460529078044 4.53949448102982 40.0
557 1 1 0 -2.0959460529078044 4.53949448102982 42.0
558 1 1 0 -2.0959460529078044 4.53949448102982 44.0
559 1 1 0 -2.0959460529078044 4.53949448102982 46.0
560 1 1 0 -2.0959460529078044 4.53949448102982 48.0
561 1 1 0 -2.0959460529078044 4.53949448102982 50.0
562 1 1 0 -2.9573751277375493 4.03161659310993 -50.0
563 1 1 0 -2.9573751277375493 4.03161659310993 -48.0
564 1 1 0 -2.9573751277375493 4.03161659310993 -46.0
565 1 1 0 -2.9573751277375493 4.03161659310993 -44.0
566 1 1 0 -2.9573751277375493 4.03161659310993 -42.0
567 1 1 0 -2.9573751277375493 4.03161659310993 -40.0
568 1 1 0 -2.9573751277375493 4.03161659310993 -38.0
569 1 1 0 -2.9573751277375493 4.03161659310993 -36.0
570 1 1 0 -2.9573751277375493 4.03161659310993 -34.0
571 1 1 0 -2.9573751277375493 4.03161659310993 -32.0
572 1 1 0 -2.9573751277375493 4.03161659310993 -30.0
573 1 1 0 -2.9573751277375493 4.03161659310993 -28.0
574 1 1 0 -2.9573751277375493 4.03161659310993 -26.0
575 1 1 0 -2.9573751277375493 4.03161659310993 -24.0
576 1 1 0 -2.9573751277375493 4.03161659310993 -22.0
577 1 1 0 -2.9573751277375493 4.03161659310993 -20.0
578 1 1 0 -2.9573751277375493 4.03161659310993 -18.0
579 1 1 0 -2.9573751277375493 4.03161659310993 -16.0
580 1 1 0 -2.9573751277375493 4.03161659310993 -14.0
581 1 1 0 -2.9573751277375493 4.03161659310993 -12.0
582 1 1 0 -2.9573751277375493 4.03161659310993 -10.0
583 1 1 0 -2.9573751277375493 4.03161659310993 -8.0
584 1 1 0 -2.9573751277375493 4.03161659310993 -6.0
585 1 1 0 -2.9573751277375493 4.03161659310993 -4.0
586 1 1 0 -2.9573751277375493 4.03161659310993 -2.0
587 1 1 0 -2.9573751277375493 4.03161659310993 0.0
588 1 1 0 -2.9573751277375493 4.03161659310993 2.0
589 1 1 0 -2.9573751277375493 4.03161659310993 4.0
590 1 1 0 -2.9573751277375493 4.03161659310993 6.0
591 1 1 0 -2.9573751277375493 4.03161659310993 8.0
592 1 1 0 -2.9573751277375493 4.03161659310993 10.0
593 1 1 0 -2.9573751277375493 4.03161659310993 12.0
594 1 1 0 -2.9573751277375493 4.03161659310993 14.0
595 1 1 0 -2.9573751277375493 4.03161659310993 16.0
596 1 1 0 -2.9573751277375493 4.03161659310993 18.0
597 1 1 0 -2.9573751277375493 4.03161659310993 20.0
598 1 1 0 -2.9573751277375493 4.03161659310993 22.0
599 1 1 0 -2.9573751277375493 4.03161659310993 24.0
600 1 1 0 -2.9573751277375493 4.03161659310993 26.0
601 1 1 0 -2.9573751277375493 4.03161659310993 28.0
602 1 1 0 -2.9573751277375493 4.03161659310993 30.0
603 1 1 0 -2.9573751277375493 4.03161659310993 32.0
604 1 1 0 -2.9573751277375493 4.03161659310993 34.0
605 1 1 0 -2.9573751277375493 4.03161659310993 36.0
606 1 1 0 -2.9573751277375493 4.03161659310993 38.0
607 1 1 0 -2.9573751277375493 4.03161659310993 40.0
608 1 1 0 -2.9573751277375493 4.03161659310993 42.0
609 1 1 0 -2.9573751277375493 4.03161659310993 44.0
610 1 1 0 -2.9573751277375493 4.03161659310993 46.0
611 1 1 0 -2.9573751277375493 4.03161659310993 48.0
612 1 1 0 -2.9573751277375493 4.03161659310993 50.0
613 1 1 0 -3.7005091974577917 3.3624740414656418 -50.0
614 1 1 0 -3.7005091974577917 3.3624740414656418 -48.0
615 1 1 0 -3.7005091974577917 3.3624740414656418 -46.0
616 1 1 0 -3.7005091974577917 3.3624740414656418 -44.0
617 1 1 0 -3.7005091974577917 3.3624740414656418 -42.0
618 1 1 0 -3.7005091974577917 3.3624740414656418 -40.0
619 1 1 0 -3.7005091974577917 3.3624740414656418 -38.0
620 1 1 0 -3.7005091974577917 3.3624740414656418 -36.0